LAMMPS data file. CGCMM style. atom_style full generated by VMD/TopoTools v1.5 on Mon Jan 25 13:16:39 PST 2016
 407 atoms
 406 bonds
 753 angles
 864 dihedrals
 0 impropers
 4 atom types
 5 bond types
 9 angle types
 8 dihedral types
 0 improper types
 -43.154001 206.845999  xlo xhi
 -183.596093 66.403907  ylo yhi
 -125.000000 125.000000  zlo zhi

# Pair Coeffs
#
# 1  Ce
# 2  Cm
# 3  H
# 4  O

# Bond Coeffs
#
# 1  Ce-Ce
# 2  Ce-Cm
# 3  Ce-H
# 4  Ce-O
# 5  Cm-H

# Angle Coeffs
#
# 1  Ce-Ce-H
# 2  Ce-Ce-O
# 3  Ce-Cm-H
# 4  Ce-O-Ce
# 5  Cm-Ce-H
# 6  Cm-Ce-O
# 7  H-Ce-H
# 8  H-Ce-O
# 9  H-Cm-H

# Dihedral Coeffs
#
# 1  Ce-Ce-O-Ce
# 2  Cm-Ce-O-Ce
# 3  H-Ce-Ce-H
# 4  H-Ce-Ce-O
# 5  H-Ce-Cm-H
# 6  H-Ce-O-Ce
# 7  O-Ce-Ce-O
# 8  O-Ce-Cm-H

 Masses

 1 12.011000 # Ce
 2 12.011000 # Cm
 3 1.008000 # H
 4 15.999400 # O

 Atoms

1 1 2 0.066100 0 0 0 # Cm
2 1 3 0.046100 -0.35666 1.00881 0 # H
3 1 3 0.046100 -0.372119 -0.517286 -0.901654 # H
4 1 3 0.046100 -0.372119 -0.517286 0.901654 # H
5 1 1 0.020000 1.5075 0 0 # Ce
6 1 3 0.046100 1.87962 0.517286 0.901654 # H
7 1 3 0.046100 1.87962 0.517286 -0.901654 # H
8 1 4 -0.316600 1.94485 -1.34203 0 # O
9 1 1 0.020000 3.35635 -1.34203 0 # Ce
10 1 3 0.046100 3.72847 -0.824748 0.901654 # H
11 1 3 0.046100 3.72847 -0.824748 -0.901654 # H
12 1 1 0.020000 3.83569 -2.7713 0 # Ce
13 1 3 0.046100 4.93956 -2.79358 0.00284394 # H
14 1 3 0.046100 3.4589 -3.29015 -0.89881 # H
15 1 4 -0.316600 3.33856 -3.39931 1.16224 # O
16 1 1 0.020000 1.92881 -3.34211 1.12129 # Ce
17 1 3 0.046100 1.561 -3.86771 0.222681 # H
18 1 3 0.046100 1.59981 -2.28856 1.09257 # H
19 1 1 0.020000 1.38583 -4.0104 2.35868 # Ce
20 1 3 0.046100 1.71948 -5.0624 2.39028 # H
21 1 3 0.046100 0.282387 -3.9739 2.34754 # H
22 1 4 -0.316600 1.87912 -3.31496 3.48356 # O
23 1 1 0.020000 1.37072 -3.94069 4.64215 # Ce
24 1 3 0.046100 1.70438 -4.99269 4.67375 # H
25 1 3 0.046100 0.267279 -3.90418 4.631 # H
26 1 1 0.020000 1.8912 -3.20605 5.85127 # Ce
27 1 3 0.046100 1.55754 -2.15405 5.81967 # H
28 1 3 0.046100 2.99464 -3.24255 5.86241 # H
29 1 4 -0.316600 1.37696 -3.83975 7.00292 # O
30 1 1 0.020000 1.86429 -3.1519 8.13505 # Ce
31 1 3 0.046100 1.47976 -3.62821 9.05391 # H
32 1 3 0.046100 1.53534 -2.09851 8.10057 # H
33 1 1 0.020000 3.37043 -3.21452 8.12238 # Ce
34 1 3 0.046100 3.75496 -2.73821 7.20352 # H
35 1 3 0.046100 3.69938 -4.26791 8.15685 # H
36 1 4 -0.316600 3.84643 -2.52419 9.25781 # O
37 1 1 0.020000 5.25666 -2.58282 9.24595 # Ce
38 1 3 0.046100 5.64119 -2.10652 8.32709 # H
39 1 3 0.046100 5.58561 -3.63622 9.28043 # H
40 1 1 0.020000 5.77714 -1.84819 10.4551 # Ce
41 1 3 0.046100 6.88075 -1.87987 10.4632 # H
42 1 3 0.046100 5.38807 -2.32106 11.3738 # H
43 1 4 -0.316600 5.33454 -0.5101 10.3779 # O
44 1 1 0.020000 5.82187 0.177751 11.51 # Ce
45 1 3 0.046100 6.92549 0.146075 11.5181 # H
46 1 3 0.046100 5.43281 -0.295121 12.4287 # H
47 1 1 0.020000 5.35519 1.60942 11.4387 # Ce
48 1 3 0.046100 5.73959 2.08063 10.5171 # H
49 1 3 0.046100 5.7241 2.16534 12.3184 # H
50 1 4 -0.316600 3.94374 1.60924 11.4265 # O
51 1 1 0.020000 3.50678 2.94974 11.3597 # Ce
52 1 3 0.046100 3.89118 3.42095 10.4382 # H
53 1 3 0.046100 3.87569 3.50566 12.2395 # H
54 1 1 0.020000 1.99939 2.96242 11.3462 # Ce
55 1 3 0.046100 1.6365 4.00373 11.2912 # H
56 1 3 0.046100 1.61497 2.48615 12.2651 # H
57 1 4 -0.316600 1.56613 2.24125 10.2128 # O
58 1 1 0.020000 0.154741 2.25313 10.2001 # Ce
59 1 3 0.046100 -0.20815 3.29444 10.1452 # H
60 1 3 0.046100 -0.229679 1.77686 11.119 # H
61 1 1 0.020000 -0.320231 1.4852 8.99294 # Ce
62 1 3 0.046100 0.0688303 1.95819 8.07427 # H
63 1 3 0.046100 -1.42399 1.48006 8.9658 # H
64 1 4 -0.316600 0.164886 0.16374 9.09654 # O
65 1 1 0.020000 -0.27984 -0.555284 7.96625 # Ce
66 1 3 0.046100 0.0830517 -1.5966 8.02119 # H
67 1 3 0.046100 0.104581 -0.0790168 7.04732 # H
68 1 1 0.020000 -1.78723 -0.542601 7.95269 # Ce
69 1 3 0.046100 -2.1562 -1.10331 7.07605 # H
70 1 3 0.046100 -2.15017 0.498978 7.90343 # H
71 1 4 -0.316600 -2.24045 -1.15458 9.14113 # O
72 1 1 0.020000 -3.65184 -1.14271 9.12844 # Ce
73 1 3 0.046100 -4.02082 -1.70341 8.2518 # H
74 1 3 0.046100 -4.01478 -0.101127 9.07918 # H
75 1 1 0.020000 -4.14808 -1.79435 10.394 # Ce
76 1 3 0.046100 -3.7791 -1.23364 11.2706 # H
77 1 3 0.046100 -3.78514 -2.83593 10.4433 # H
78 1 4 -0.316600 -5.55928 -1.77694 10.3706 # O
79 1 1 0.020000 -5.98674 -2.49645 9.23396 # Ce
80 1 3 0.046100 -5.62398 -3.5375 9.29444 # H
81 1 3 0.046100 -5.5891 -2.02006 8.32074 # H
82 1 1 0.020000 -7.49377 -2.48482 9.19811 # Ce
83 1 3 0.046100 -7.84935 -3.04592 8.3162 # H
84 1 3 0.046100 -7.85666 -1.4435 9.14331 # H
85 1 4 -0.316600 -7.9641 -3.09692 10.3798 # O
86 1 1 0.020000 -7.47245 -4.41962 10.4128 # Ce
87 1 3 0.046100 -6.36844 -4.40645 10.4092 # H
88 1 3 0.046100 -7.83723 -4.97428 9.53053 # H
89 1 1 0.020000 -7.96863 -5.08422 11.6716 # Ce
90 1 3 0.046100 -7.60852 -4.52632 12.5537 # H
91 1 3 0.046100 -7.59679 -6.1229 11.7154 # H
92 1 4 -0.316600 -9.37981 -5.07899 11.6419 # O
93 1 1 0.020000 -9.84439 -5.70126 12.8206 # Ce
94 1 3 0.046100 -9.48428 -5.14336 13.7027 # H
95 1 3 0.046100 -9.47255 -6.73994 12.8644 # H
96 1 1 0.020000 -11.3518 -5.70166 12.8002 # Ce
97 1 3 0.046100 -11.7361 -6.18251 13.7168 # H
98 1 3 0.046100 -11.7118 -6.25476 11.9151 # H
99 1 4 -0.316600 -11.7887 -4.36082 12.7406 # O
100 1 1 0.020000 -13.2001 -4.3612 12.7215 # Ce
101 1 3 0.046100 -13.5845 -4.84205 13.6381 # H
102 1 3 0.046100 -13.5601 -4.9143 11.8364 # H
103 1 1 0.020000 -13.679 -2.93321 12.6578 # Ce
104 1 3 0.046100 -14.7828 -2.91113 12.6449 # H
105 1 3 0.046100 -13.2899 -2.45069 11.7441 # H
106 1 4 -0.316600 -13.1974 -2.25901 13.8005 # O
107 1 1 0.020000 -13.6458 -0.921957 13.7409 # Ce
108 1 3 0.046100 -14.7496 -0.899875 13.7279 # H
109 1 3 0.046100 -13.2568 -0.439429 12.8272 # H
110 1 1 0.020000 -13.1372 -0.191088 14.9573 # Ce
111 1 3 0.046100 -13.4799 0.85815 14.9314 # H
112 1 3 0.046100 -12.0336 -0.218017 14.9732 # H
113 1 4 -0.316600 -13.651 -0.837123 16.1023 # O
114 1 1 0.020000 -13.1748 -0.152797 17.2413 # Ce
115 1 3 0.046100 -12.071 -0.174879 17.2542 # H
116 1 3 0.046100 -13.5639 -0.635324 18.155 # H
117 1 1 0.020000 -13.6537 1.27519 17.1775 # Ce
118 1 3 0.046100 -13.289 1.82974 18.0598 # H
119 1 3 0.046100 -14.7575 1.29705 17.1589 # H
120 1 4 -0.316600 -13.1408 1.85627 15.9979 # O
121 1 1 0.020000 -13.5892 3.19332 15.9382 # Ce
122 1 3 0.046100 -13.2048 3.67417 15.0217 # H
123 1 3 0.046100 -13.2291 3.74642 16.8234 # H
124 1 1 0.020000 -15.0966 3.19292 15.9179 # Ce
125 1 3 0.046100 -15.4567 2.63502 15.0358 # H
126 1 3 0.046100 -15.4684 4.2316 15.8741 # H
127 1 4 -0.316600 -15.5497 2.56889 17.1001 # O
128 1 1 0.020000 -16.9611 2.56851 17.081 # Ce
129 1 3 0.046100 -17.3212 2.01061 16.1989 # H
130 1 3 0.046100 -17.333 3.60719 17.0372 # H
131 1 1 0.020000 -17.4573 1.90391 18.3399 # Ce
132 1 3 0.046100 -18.5613 1.89074 18.3434 # H
133 1 3 0.046100 -17.0925 2.45857 19.2221 # H
134 1 4 -0.316600 -16.9601 0.583081 18.3623 # O
135 1 1 0.020000 -17.4433 -0.085635 17.217 # Ce
136 1 3 0.046100 -17.0929 0.433217 16.3076 # H
137 1 3 0.046100 -18.5472 -0.0985827 17.2318 # H
138 1 1 0.020000 -16.9184 -1.49874 17.2299 # Ce
139 1 3 0.046100 -15.8144 -1.48572 17.2208 # H
140 1 3 0.046100 -17.2879 -2.04104 16.3419 # H
141 1 4 -0.316600 -17.3828 -2.1271 18.4054 # O
142 1 1 0.020000 -16.8913 -3.45021 18.4174 # Ce
143 1 3 0.046100 -15.7873 -3.43719 18.4084 # H
144 1 3 0.046100 -17.2608 -3.99251 17.5295 # H
145 1 1 0.020000 -17.3811 -4.13212 19.6695 # Ce
146 1 3 0.046100 -17.0047 -5.16962 19.6998 # H
147 1 3 0.046100 -18.4851 -4.14014 19.6813 # H
148 1 4 -0.316600 -16.8931 -3.41041 20.7801 # O
149 1 1 0.020000 -17.3517 -4.04889 21.9524 # Ce
150 1 3 0.046100 -16.9753 -5.08639 21.9826 # H
151 1 3 0.046100 -18.4557 -4.05691 21.9641 # H
152 1 1 0.020000 -16.8364 -3.2864 23.1464 # Ce
153 1 3 0.046100 -15.7325 -3.27357 23.1316 # H
154 1 3 0.046100 -17.187 -3.76884 24.0756 # H
155 1 4 -0.316600 -17.3342 -1.96772 23.0713 # O
156 1 1 0.020000 -16.8517 -1.25379 24.1892 # Ce
157 1 3 0.046100 -17.2281 -0.216286 24.159 # H
158 1 3 0.046100 -15.7477 -1.24576 24.1775 # H
159 1 1 0.020000 -17.3415 -1.93569 25.4413 # Ce
160 1 3 0.046100 -16.9767 -1.39014 26.3292 # H
161 1 3 0.046100 -16.9697 -2.97494 25.4688 # H
162 1 4 -0.316600 -18.7528 -1.92979 25.419 # O
163 1 1 0.020000 -19.2114 -2.56827 26.5913 # Ce
164 1 3 0.046100 -20.3154 -2.5813 26.6003 # H
165 1 3 0.046100 -18.842 -2.02597 27.4792 # H
166 1 1 0.020000 -18.6865 -3.98138 26.6041 # Ce
167 1 3 0.046100 -19.0514 -4.522 25.7133 # H
168 1 3 0.046100 -19.0323 -4.49848 27.5163 # H
169 1 4 -0.316600 -17.2763 -3.92424 26.5884 # O
170 1 1 0.020000 -16.7848 -5.24736 26.6005 # Ce
171 1 3 0.046100 -17.1497 -5.78798 25.7096 # H
172 1 3 0.046100 -17.1305 -5.76446 27.5127 # H
173 1 1 0.020000 -15.2782 -5.19922 26.5838 # Ce
174 1 3 0.046100 -14.873 -6.22625 26.5901 # H
175 1 3 0.046100 -14.9135 -4.65371 27.4718 # H
176 1 4 -0.316600 -14.8749 -4.52979 25.4084 # O
177 1 1 0.020000 -15.419 -3.2277 25.4381 # Ce
178 1 3 0.046100 -16.5206 -3.28565 25.485 # H
179 1 3 0.046100 -15.1172 -2.67746 24.5297 # H
180 1 1 0.020000 -14.8951 -2.51712 26.6601 # Ce
181 1 3 0.046100 -15.1921 -3.07041 27.5682 # H
182 1 3 0.046100 -15.3073 -1.49367 26.7008 # H
183 1 4 -0.316600 -13.4877 -2.46581 26.5664 # O
184 1 1 0.020000 -12.9972 -1.80049 27.7106 # Ce
185 1 3 0.046100 -11.8956 -1.74254 27.6637 # H
186 1 3 0.046100 -13.299 -2.35072 28.619 # H
187 1 1 0.020000 -13.5782 -0.409834 27.7424 # Ce
188 1 3 0.046100 -14.6798 -0.467786 27.7892 # H
189 1 3 0.046100 -13.2764 0.140398 26.834 # H
190 1 4 -0.316600 -13.0814 0.24563 28.8895 # O
191 1 1 0.020000 -13.6255 1.54773 28.9192 # Ce
192 1 3 0.046100 -14.7271 1.48978 28.9661 # H
193 1 3 0.046100 -13.3237 2.09796 28.0108 # H
194 1 1 0.020000 -13.1016 2.2583 30.1412 # Ce
195 1 3 0.046100 -13.5183 3.27984 30.1849 # H
196 1 3 0.046100 -11.9997 2.31128 30.0971 # H
197 1 4 -0.316600 -13.5031 1.52566 31.2789 # O
198 1 1 0.020000 -13.0127 2.19098 32.4231 # Ce
199 1 3 0.046100 -13.4293 3.21252 32.4667 # H
200 1 3 0.046100 -11.9107 2.24396 32.3789 # H
201 1 1 0.020000 -13.4355 1.41711 33.6457 # Ce
202 1 3 0.046100 -13.0635 1.92337 34.5536 # H
203 1 3 0.046100 -13.0236 0.393797 33.5993 # H
204 1 4 -0.316600 -14.846 1.3677 33.6658 # O
205 1 1 0.020000 -15.242 0.643109 34.8106 # Ce
206 1 3 0.046100 -14.87 1.14937 35.7185 # H
207 1 3 0.046100 -14.83 -0.380199 34.7642 # H
208 1 1 0.020000 -16.748 0.583536 34.843 # Ce
209 1 3 0.046100 -17.0791 0.0221829 35.7342 # H
210 1 3 0.046100 -17.1202 0.0822894 33.9324 # H
211 1 4 -0.316600 -17.2369 1.90649 34.8983 # O
212 1 1 0.020000 -18.647 1.85071 34.9286 # Ce
213 1 3 0.046100 -18.9781 1.28936 35.8199 # H
214 1 3 0.046100 -19.0192 1.34947 34.018 # H
215 1 1 0.020000 -19.1812 3.25912 34.9878 # Ce
216 1 3 0.046100 -18.8501 3.82048 34.0966 # H
217 1 3 0.046100 -18.809 3.76037 35.8984 # H
218 1 4 -0.316600 -20.5908 3.19129 35.0178 # O
219 1 1 0.020000 -21.091 4.51002 35.0732 # Ce
220 1 3 0.046100 -20.7599 5.07137 34.1819 # H
221 1 3 0.046100 -20.7188 5.01126 35.9838 # H
222 1 1 0.020000 -22.597 4.45044 35.1056 # Ce
223 1 3 0.046100 -22.969 3.94418 34.1976 # H
224 1 3 0.046100 -23.009 5.47375 35.152 # H
225 1 4 -0.316600 -22.9814 3.7243 36.2533 # O
226 1 1 0.020000 -24.3914 3.66852 36.2837 # Ce
227 1 3 0.046100 -24.7635 3.16226 35.3757 # H
228 1 3 0.046100 -24.8034 4.69183 36.3301 # H
229 1 1 0.020000 -24.8143 2.89465 37.5063 # Ce
230 1 3 0.046100 -24.4423 3.40091 38.4142 # H
231 1 3 0.046100 -24.4024 1.87134 37.4599 # H
232 1 4 -0.316600 -26.2248 2.84524 37.5264 # O
233 1 1 0.020000 -26.6208 2.12065 38.6712 # Ce
234 1 3 0.046100 -26.2488 2.62691 39.5791 # H
235 1 3 0.046100 -26.2088 1.09734 38.6248 # H
236 1 1 0.020000 -28.1268 2.06108 38.7036 # Ce
237 1 3 0.046100 -28.4579 1.49972 39.5948 # H
238 1 3 0.046100 -28.499 1.55983 37.793 # H
239 1 4 -0.316600 -28.6157 3.38403 38.7589 # O
240 1 1 0.020000 -28.1114 3.98806 39.9307 # Ce
241 1 3 0.046100 -27.0077 3.9955 39.9001 # H
242 1 3 0.046100 -28.4518 3.42352 40.8164 # H
243 1 1 0.020000 -28.6273 5.40281 40.0009 # Ce
244 1 3 0.046100 -28.2413 5.89495 40.9107 # H
245 1 3 0.046100 -29.7311 5.3956 40.0258 # H
246 1 4 -0.316600 -28.1761 6.09022 38.8536 # O
247 1 1 0.020000 -28.6592 7.41487 38.9192 # Ce
248 1 3 0.046100 -28.2732 7.90701 39.8291 # H
249 1 3 0.046100 -29.763 7.40766 38.9441 # H
250 1 1 0.020000 -28.1834 8.15968 37.698 # Ce
251 1 3 0.046100 -27.0796 8.16204 37.6701 # H
252 1 3 0.046100 -28.5535 9.19944 37.7286 # H
253 1 4 -0.316600 -28.6923 7.50092 36.5581 # O
254 1 1 0.020000 -28.2467 8.1983 35.4146 # Ce
255 1 3 0.046100 -27.143 8.20066 35.3868 # H
256 1 3 0.046100 -28.6169 9.23806 35.4452 # H
257 1 1 0.020000 -28.7844 7.50341 34.1897 # Ce
258 1 3 0.046100 -29.8882 7.50105 34.2175 # H
259 1 3 0.046100 -28.4143 6.46365 34.1591 # H
260 1 4 -0.316600 -28.3331 8.20863 33.0533 # O
261 1 1 0.020000 -28.8366 7.558 31.9063 # Ce
262 1 3 0.046100 -29.9403 7.55564 31.9342 # H
263 1 3 0.046100 -28.4665 6.51823 31.8757 # H
264 1 1 0.020000 -28.3608 8.30281 30.6851 # Ce
265 1 3 0.046100 -28.7467 7.81067 29.7752 # H
266 1 3 0.046100 -27.257 8.31002 30.6602 # H
267 1 4 -0.316600 -28.8492 9.62492 30.7613 # O
268 1 1 0.020000 -28.4037 10.3223 29.6178 # Ce
269 1 3 0.046100 -28.7896 9.83016 28.7079 # H
270 1 3 0.046100 -27.2999 10.3295 29.5929 # H
271 1 1 0.020000 -28.9196 11.7371 29.6879 # Ce
272 1 3 0.046100 -28.5336 12.2292 30.5978 # H
273 1 3 0.046100 -30.0233 11.7298 29.7128 # H
274 1 4 -0.316600 -28.4684 12.4245 28.5407 # O
275 1 1 0.020000 -28.9514 13.7491 28.6063 # Ce
276 1 3 0.046100 -28.5655 14.2413 29.5162 # H
277 1 3 0.046100 -30.0552 13.7419 28.6312 # H
278 1 1 0.020000 -28.4756 14.4939 27.3851 # Ce
279 1 3 0.046100 -27.3719 14.4963 27.3572 # H
280 1 3 0.046100 -28.8458 15.5337 27.4157 # H
281 1 4 -0.316600 -28.9845 13.8352 26.2452 # O
282 1 1 0.020000 -30.3937 13.8489 26.3248 # Ce
283 1 3 0.046100 -30.7549 14.892 26.3495 # H
284 1 3 0.046100 -30.7199 13.3242 27.2399 # H
285 1 1 0.020000 -30.9492 13.1475 25.1116 # Ce
286 1 3 0.046100 -30.6184 13.6689 24.1963 # H
287 1 3 0.046100 -32.0524 13.1447 25.1559 # H
288 1 4 -0.316600 -30.4642 11.8219 25.1124 # O
289 1 1 0.020000 -30.9843 11.1651 23.9764 # Ce
290 1 3 0.046100 -30.6535 11.6865 23.0612 # H
291 1 3 0.046100 -32.0875 11.1624 24.0208 # H
292 1 1 0.020000 -30.4727 9.74714 23.9664 # Ce
293 1 3 0.046100 -29.3693 9.74991 23.9278 # H
294 1 3 0.046100 -30.871 9.21404 23.0854 # H
295 1 4 -0.316600 -30.9113 9.11559 25.1501 # O
296 1 1 0.020000 -30.4323 7.78789 25.1408 # Ce
297 1 3 0.046100 -29.3289 7.79066 25.1021 # H
298 1 3 0.046100 -30.8306 7.25479 24.2597 # H
299 1 1 0.020000 -30.8948 7.10253 26.4013 # Ce
300 1 3 0.046100 -31.9982 7.09976 26.4399 # H
301 1 3 0.046100 -30.4965 7.63563 27.2823 # H
302 1 4 -0.316600 -30.4105 5.77686 26.3812 # O
303 1 1 0.020000 -30.8436 5.13515 27.5615 # Ce
304 1 3 0.046100 -31.947 5.13238 27.6001 # H
305 1 3 0.046100 -30.4453 5.66825 28.4425 # H
306 1 1 0.020000 -30.332 3.71716 27.5515 # Ce
307 1 3 0.046100 -29.2286 3.71993 27.5128 # H
308 1 3 0.046100 -30.7303 3.18406 26.6705 # H
309 1 4 -0.316600 -30.7706 3.0856 28.7352 # O
310 1 1 0.020000 -30.2916 1.7579 28.7258 # Ce
311 1 3 0.046100 -29.1882 1.76067 28.6872 # H
312 1 3 0.046100 -30.6899 1.22481 27.8448 # H
313 1 1 0.020000 -30.7541 1.07255 29.9863 # Ce
314 1 3 0.046100 -30.3869 0.0314058 30 # H
315 1 3 0.046100 -31.8574 1.07476 30.0277 # H
316 1 4 -0.316600 -30.2297 1.7825 31.0878 # O
317 1 1 0.020000 -30.6627 1.14079 32.2681 # Ce
318 1 3 0.046100 -30.2955 0.0996489 32.2818 # H
319 1 3 0.046100 -31.766 1.143 32.3095 # H
320 1 1 0.020000 -30.1083 1.89073 33.4525 # Ce
321 1 3 0.046100 -30.4338 1.40232 34.3877 # H
322 1 3 0.046100 -30.4711 2.93341 33.4357 # H
323 1 4 -0.316600 -28.6998 1.86957 33.3633 # O
324 1 1 0.020000 -28.3288 2.49543 32.1537 # Ce
325 1 3 0.046100 -28.7729 1.95149 31.3017 # H
326 1 3 0.046100 -27.2289 2.49634 32.0574 # H
327 1 1 0.020000 -28.8383 3.91407 32.1721 # Ce
328 1 3 0.046100 -29.9377 3.91328 32.2741 # H
329 1 3 0.046100 -28.5556 4.4232 31.2341 # H
330 1 4 -0.316600 -28.2532 4.57476 33.2736 # O
331 1 1 0.020000 -26.8519 4.54632 33.1067 # Ce
332 1 3 0.046100 -26.5782 5.062 32.1696 # H
333 1 3 0.046100 -26.503 3.49954 33.0668 # H
334 1 1 0.020000 -26.2152 5.24968 34.2782 # Ce
335 1 3 0.046100 -26.4889 4.734 35.2154 # H
336 1 3 0.046100 -26.564 6.29646 34.3182 # H
337 1 4 -0.316600 -24.8153 5.21522 34.1009 # O
338 1 1 0.020000 -24.4143 3.86292 34.0483 # Ce
339 1 3 0.046100 -24.9135 3.3594 33.202 # H
340 1 3 0.046100 -24.687 3.35695 34.991 # H
341 1 1 0.020000 -22.9195 3.81323 33.859 # Ce
342 1 3 0.046100 -22.4203 4.31675 34.7053 # H
343 1 3 0.046100 -22.6468 4.3192 32.9163 # H
344 1 4 -0.316600 -22.53 2.45752 33.8078 # O
345 1 1 0.020000 -21.1305 2.411 33.6305 # Ce
346 1 3 0.046100 -20.796 1.35981 33.5839 # H
347 1 3 0.046100 -20.6314 2.91944 34.474 # H
348 1 1 0.020000 -20.7872 3.11112 32.3404 # Ce
349 1 3 0.046100 -21.1216 4.16232 32.387 # H
350 1 3 0.046100 -21.2862 2.60268 31.4969 # H
351 1 4 -0.316600 -19.3866 3.05856 32.1735 # O
352 1 1 0.020000 -19.0652 3.7141 30.9655 # Ce
353 1 3 0.046100 -19.3996 4.7653 31.0121 # H
354 1 3 0.046100 -19.5642 3.20566 30.122 # H
355 1 1 0.020000 -17.5704 3.66442 30.7761 # Ce
356 1 3 0.046100 -17.2972 4.17531 29.8362 # H
357 1 3 0.046100 -17.2353 2.61322 30.7351 # H
358 1 4 -0.316600 -16.9687 4.31908 31.8724 # O
359 1 1 0.020000 -15.5692 4.27257 31.6951 # Ce
360 1 3 0.046100 -15.0699 4.77608 32.5414 # H
361 1 3 0.046100 -15.2965 4.77853 30.7524 # H
362 1 1 0.020000 -15.1409 2.82828 31.6389 # Ce
363 1 3 0.046100 -14.0467 2.76963 31.5031 # H
364 1 3 0.046100 -15.6444 2.32335 30.7959 # H
365 1 4 -0.316600 -15.5084 2.21542 32.8561 # O
366 1 1 0.020000 -15.1074 0.863109 32.8035 # Ce
367 1 3 0.046100 -14.0132 0.804457 32.6677 # H
368 1 3 0.046100 -15.611 0.358176 31.9605 # H
369 1 1 0.020000 -15.495 0.19742 34.0993 # Ce
370 1 3 0.046100 -15.187 -0.862675 34.0797 # H
371 1 3 0.046100 -16.5885 0.261025 34.2378 # H
372 1 4 -0.316600 -14.8367 0.870617 35.1508 # O
373 1 1 0.020000 -13.446 0.770921 34.931 # Ce
374 1 3 0.046100 -13.1875 1.2382 33.9647 # H
375 1 3 0.046100 -13.1464 -0.291705 34.9184 # H
376 1 1 0.020000 -12.7315 1.48692 36.0488 # Ce
377 1 3 0.046100 -11.6401 1.42305 35.894 # H
378 1 3 0.046100 -12.9943 1.0232 37.0157 # H
379 1 4 -0.316600 -13.1413 2.83754 36.0355 # O
380 1 1 0.020000 -12.4723 3.50794 37.0821 # Ce
381 1 3 0.046100 -11.381 3.44407 36.9273 # H
382 1 3 0.046100 -12.7352 3.04422 38.049 # H
383 1 1 0.020000 -12.9024 4.95279 37.0779 # Ce
384 1 3 0.046100 -12.6446 5.41499 36.1089 # H
385 1 3 0.046100 -12.3916 5.49542 37.8926 # H
386 1 4 -0.316600 -14.2996 4.9938 37.2743 # O
387 1 1 0.020000 -14.7022 6.34663 37.2704 # Ce
388 1 3 0.046100 -14.1872 6.89053 38.0815 # H
389 1 3 0.046100 -15.7944 6.41025 37.4196 # H
390 1 1 0.020000 -14.3351 6.95221 35.9396 # Ce
391 1 3 0.046100 -13.2436 6.88353 35.7879 # H
392 1 3 0.046100 -14.6447 8.01173 35.9148 # H
393 1 4 -0.316600 -15.0077 6.23042 34.9302 # O
394 1 1 0.020000 -14.664 6.79743 33.6841 # Ce
395 1 3 0.046100 -13.5725 6.72875 33.5324 # H
396 1 3 0.046100 -14.9735 7.85695 33.6593 # H
397 1 1 0.020000 -15.377 6.03418 32.5971 # Ce
398 1 3 0.046100 -15.0716 4.97352 32.6255 # H
399 1 3 0.046100 -15.1233 6.46449 31.6125 # H
400 1 4 -0.316600 -16.7656 6.14162 32.826 # O
401 1 1 0.020000 -17.1105 7.50982 32.7884 # Ce
402 1 3 0.046100 -16.5521 8.05592 33.5688 # H
403 1 3 0.046100 -18.1948 7.62519 32.962 # H
404 1 2 0.066100 -16.7524 8.05726 31.4302 # Cm
405 1 3 0.046100 -17.3108 7.51116 30.6498 # H
406 1 3 0.046100 -15.6682 7.9419 31.2566 # H
407 1 3 0.046100 -17.0008 9.09704 31.3872 # H

 Bonds

1 5 1 3
2 5 1 4
3 2 1 5
4 5 1 2
5 4 5 8
6 3 5 6
7 3 5 7
8 4 8 9
9 3 9 10
10 3 9 11
11 1 9 12
12 4 12 15
13 3 12 13
14 3 12 14
15 4 15 16
16 3 16 17
17 3 16 18
18 1 16 19
19 4 19 22
20 3 19 20
21 3 19 21
22 4 22 23
23 3 23 24
24 3 23 25
25 1 23 26
26 3 26 27
27 3 26 28
28 4 26 29
29 4 29 30
30 3 30 31
31 3 30 32
32 1 30 33
33 4 33 36
34 3 33 34
35 3 33 35
36 4 36 37
37 3 37 38
38 3 37 39
39 1 37 40
40 3 40 41
41 3 40 42
42 4 40 43
43 4 43 44
44 3 44 45
45 3 44 46
46 1 44 47
47 4 47 50
48 3 47 48
49 3 47 49
50 4 50 51
51 3 51 52
52 3 51 53
53 1 51 54
54 3 54 55
55 3 54 56
56 4 54 57
57 4 57 58
58 3 58 59
59 3 58 60
60 1 58 61
61 4 61 64
62 3 61 62
63 3 61 63
64 4 64 65
65 3 65 66
66 3 65 67
67 1 65 68
68 3 68 69
69 3 68 70
70 4 68 71
71 4 71 72
72 1 72 75
73 3 72 73
74 3 72 74
75 4 75 78
76 3 75 76
77 3 75 77
78 4 78 79
79 3 79 80
80 3 79 81
81 1 79 82
82 4 82 85
83 3 82 83
84 3 82 84
85 4 85 86
86 3 86 87
87 3 86 88
88 1 86 89
89 4 89 92
90 3 89 90
91 3 89 91
92 4 92 93
93 3 93 94
94 3 93 95
95 1 93 96
96 3 96 97
97 3 96 98
98 4 96 99
99 4 99 100
100 3 100 101
101 3 100 102
102 1 100 103
103 4 103 106
104 3 103 104
105 3 103 105
106 4 106 107
107 1 107 110
108 3 107 108
109 3 107 109
110 3 110 111
111 3 110 112
112 4 110 113
113 4 113 114
114 3 114 115
115 3 114 116
116 1 114 117
117 4 117 120
118 3 117 118
119 3 117 119
120 4 120 121
121 3 121 122
122 3 121 123
123 1 121 124
124 3 124 125
125 3 124 126
126 4 124 127
127 4 127 128
128 3 128 129
129 3 128 130
130 1 128 131
131 4 131 134
132 3 131 132
133 3 131 133
134 4 134 135
135 3 135 136
136 3 135 137
137 1 135 138
138 3 138 139
139 3 138 140
140 4 138 141
141 4 141 142
142 1 142 145
143 3 142 143
144 3 142 144
145 4 145 148
146 3 145 146
147 3 145 147
148 4 148 149
149 3 149 150
150 3 149 151
151 1 149 152
152 3 152 153
153 3 152 154
154 4 152 155
155 4 155 156
156 3 156 157
157 3 156 158
158 1 156 159
159 4 159 162
160 3 159 160
161 3 159 161
162 4 162 163
163 3 163 164
164 3 163 165
165 1 163 166
166 3 166 167
167 3 166 168
168 4 166 169
169 4 169 170
170 3 170 171
171 3 170 172
172 1 170 173
173 4 173 176
174 3 173 174
175 3 173 175
176 4 176 177
177 3 177 178
178 3 177 179
179 1 177 180
180 3 180 181
181 3 180 182
182 4 180 183
183 4 183 184
184 3 184 185
185 3 184 186
186 1 184 187
187 3 187 188
188 3 187 189
189 4 187 190
190 4 190 191
191 3 191 192
192 3 191 193
193 1 191 194
194 3 194 195
195 3 194 196
196 4 194 197
197 4 197 198
198 3 198 199
199 3 198 200
200 1 198 201
201 3 201 202
202 3 201 203
203 4 201 204
204 4 204 205
205 3 205 206
206 3 205 207
207 1 205 208
208 4 208 211
209 3 208 209
210 3 208 210
211 4 211 212
212 1 212 215
213 3 212 213
214 3 212 214
215 3 215 216
216 3 215 217
217 4 215 218
218 4 218 219
219 3 219 220
220 3 219 221
221 1 219 222
222 3 222 223
223 3 222 224
224 4 222 225
225 4 225 226
226 3 226 227
227 3 226 228
228 1 226 229
229 3 229 230
230 3 229 231
231 4 229 232
232 4 232 233
233 3 233 234
234 3 233 235
235 1 233 236
236 3 236 237
237 3 236 238
238 4 236 239
239 4 239 240
240 3 240 241
241 3 240 242
242 1 240 243
243 3 243 244
244 3 243 245
245 4 243 246
246 4 246 247
247 1 247 250
248 3 247 248
249 3 247 249
250 3 250 251
251 3 250 252
252 4 250 253
253 4 253 254
254 3 254 255
255 3 254 256
256 1 254 257
257 3 257 258
258 3 257 259
259 4 257 260
260 4 260 261
261 3 261 262
262 3 261 263
263 1 261 264
264 3 264 265
265 3 264 266
266 4 264 267
267 4 267 268
268 3 268 269
269 3 268 270
270 1 268 271
271 3 271 272
272 3 271 273
273 4 271 274
274 4 274 275
275 3 275 276
276 3 275 277
277 1 275 278
278 4 278 281
279 3 278 279
280 3 278 280
281 4 281 282
282 1 282 285
283 3 282 283
284 3 282 284
285 3 285 286
286 3 285 287
287 4 285 288
288 4 288 289
289 3 289 290
290 3 289 291
291 1 289 292
292 3 292 293
293 3 292 294
294 4 292 295
295 4 295 296
296 3 296 297
297 3 296 298
298 1 296 299
299 3 299 300
300 3 299 301
301 4 299 302
302 4 302 303
303 3 303 304
304 3 303 305
305 1 303 306
306 3 306 307
307 3 306 308
308 4 306 309
309 4 309 310
310 3 310 311
311 3 310 312
312 1 310 313
313 3 313 314
314 3 313 315
315 4 313 316
316 4 316 317
317 3 317 318
318 3 317 319
319 1 317 320
320 3 320 321
321 3 320 322
322 4 320 323
323 4 323 324
324 3 324 325
325 3 324 326
326 1 324 327
327 3 327 328
328 3 327 329
329 4 327 330
330 4 330 331
331 1 331 334
332 3 331 332
333 3 331 333
334 3 334 335
335 3 334 336
336 4 334 337
337 4 337 338
338 3 338 339
339 3 338 340
340 1 338 341
341 3 341 342
342 3 341 343
343 4 341 344
344 4 344 345
345 1 345 348
346 3 345 346
347 3 345 347
348 4 348 351
349 3 348 349
350 3 348 350
351 4 351 352
352 3 352 353
353 3 352 354
354 1 352 355
355 3 355 356
356 3 355 357
357 4 355 358
358 4 358 359
359 1 359 362
360 3 359 360
361 3 359 361
362 3 362 363
363 3 362 364
364 4 362 365
365 4 365 366
366 3 366 367
367 3 366 368
368 1 366 369
369 3 369 370
370 3 369 371
371 4 369 372
372 4 372 373
373 1 373 376
374 3 373 374
375 3 373 375
376 3 376 377
377 3 376 378
378 4 376 379
379 4 379 380
380 3 380 381
381 3 380 382
382 1 380 383
383 3 383 384
384 3 383 385
385 4 383 386
386 4 386 387
387 1 387 390
388 3 387 388
389 3 387 389
390 3 390 391
391 3 390 392
392 4 390 393
393 4 393 394
394 3 394 395
395 3 394 396
396 1 394 397
397 4 397 400
398 3 397 398
399 3 397 399
400 4 400 401
401 2 401 404
402 3 401 402
403 3 401 403
404 5 404 405
405 5 404 406
406 5 404 407

 Angles

1 9 3 1 4
2 3 3 1 5
3 9 2 1 3
4 3 4 1 5
5 9 2 1 4
6 3 2 1 5
7 6 1 5 8
8 5 1 5 6
9 5 1 5 7
10 8 6 5 8
11 8 7 5 8
12 7 6 5 7
13 4 5 8 9
14 8 8 9 10
15 8 8 9 11
16 2 8 9 12
17 7 10 9 11
18 1 10 9 12
19 1 11 9 12
20 2 9 12 15
21 1 9 12 13
22 1 9 12 14
23 8 13 12 15
24 8 14 12 15
25 7 13 12 14
26 4 12 15 16
27 8 15 16 17
28 8 15 16 18
29 2 15 16 19
30 7 17 16 18
31 1 17 16 19
32 1 18 16 19
33 2 16 19 22
34 1 16 19 20
35 1 16 19 21
36 8 20 19 22
37 8 21 19 22
38 7 20 19 21
39 4 19 22 23
40 8 22 23 24
41 8 22 23 25
42 2 22 23 26
43 7 24 23 25
44 1 24 23 26
45 1 25 23 26
46 1 23 26 27
47 1 23 26 28
48 2 23 26 29
49 7 27 26 28
50 8 27 26 29
51 8 28 26 29
52 4 26 29 30
53 8 29 30 31
54 8 29 30 32
55 2 29 30 33
56 7 31 30 32
57 1 31 30 33
58 1 32 30 33
59 2 30 33 36
60 1 30 33 34
61 1 30 33 35
62 8 34 33 36
63 8 35 33 36
64 7 34 33 35
65 4 33 36 37
66 8 36 37 38
67 8 36 37 39
68 2 36 37 40
69 7 38 37 39
70 1 38 37 40
71 1 39 37 40
72 1 37 40 41
73 1 37 40 42
74 2 37 40 43
75 7 41 40 42
76 8 41 40 43
77 8 42 40 43
78 4 40 43 44
79 8 43 44 45
80 8 43 44 46
81 2 43 44 47
82 7 45 44 46
83 1 45 44 47
84 1 46 44 47
85 2 44 47 50
86 1 44 47 48
87 1 44 47 49
88 8 48 47 50
89 8 49 47 50
90 7 48 47 49
91 4 47 50 51
92 8 50 51 52
93 8 50 51 53
94 2 50 51 54
95 7 52 51 53
96 1 52 51 54
97 1 53 51 54
98 1 51 54 55
99 1 51 54 56
100 2 51 54 57
101 7 55 54 56
102 8 55 54 57
103 8 56 54 57
104 4 54 57 58
105 8 57 58 59
106 8 57 58 60
107 2 57 58 61
108 7 59 58 60
109 1 59 58 61
110 1 60 58 61
111 2 58 61 64
112 1 58 61 62
113 1 58 61 63
114 8 62 61 64
115 8 63 61 64
116 7 62 61 63
117 4 61 64 65
118 8 64 65 66
119 8 64 65 67
120 2 64 65 68
121 7 66 65 67
122 1 66 65 68
123 1 67 65 68
124 1 65 68 69
125 1 65 68 70
126 2 65 68 71
127 7 69 68 70
128 8 69 68 71
129 8 70 68 71
130 4 68 71 72
131 2 71 72 75
132 8 71 72 73
133 8 71 72 74
134 1 73 72 75
135 1 74 72 75
136 7 73 72 74
137 2 72 75 78
138 1 72 75 76
139 1 72 75 77
140 8 76 75 78
141 8 77 75 78
142 7 76 75 77
143 4 75 78 79
144 8 78 79 80
145 8 78 79 81
146 2 78 79 82
147 7 80 79 81
148 1 80 79 82
149 1 81 79 82
150 2 79 82 85
151 1 79 82 83
152 1 79 82 84
153 8 83 82 85
154 8 84 82 85
155 7 83 82 84
156 4 82 85 86
157 8 85 86 87
158 8 85 86 88
159 2 85 86 89
160 7 87 86 88
161 1 87 86 89
162 1 88 86 89
163 2 86 89 92
164 1 86 89 90
165 1 86 89 91
166 8 90 89 92
167 8 91 89 92
168 7 90 89 91
169 4 89 92 93
170 8 92 93 94
171 8 92 93 95
172 2 92 93 96
173 7 94 93 95
174 1 94 93 96
175 1 95 93 96
176 1 93 96 97
177 1 93 96 98
178 2 93 96 99
179 7 97 96 98
180 8 97 96 99
181 8 98 96 99
182 4 96 99 100
183 8 99 100 101
184 8 99 100 102
185 2 99 100 103
186 7 101 100 102
187 1 101 100 103
188 1 102 100 103
189 2 100 103 106
190 1 100 103 104
191 1 100 103 105
192 8 104 103 106
193 8 105 103 106
194 7 104 103 105
195 4 103 106 107
196 2 106 107 110
197 8 106 107 108
198 8 106 107 109
199 1 108 107 110
200 1 109 107 110
201 7 108 107 109
202 1 107 110 111
203 1 107 110 112
204 2 107 110 113
205 7 111 110 112
206 8 111 110 113
207 8 112 110 113
208 4 110 113 114
209 8 113 114 115
210 8 113 114 116
211 2 113 114 117
212 7 115 114 116
213 1 115 114 117
214 1 116 114 117
215 2 114 117 120
216 1 114 117 118
217 1 114 117 119
218 8 118 117 120
219 8 119 117 120
220 7 118 117 119
221 4 117 120 121
222 8 120 121 122
223 8 120 121 123
224 2 120 121 124
225 7 122 121 123
226 1 122 121 124
227 1 123 121 124
228 1 121 124 125
229 1 121 124 126
230 2 121 124 127
231 7 125 124 126
232 8 125 124 127
233 8 126 124 127
234 4 124 127 128
235 8 127 128 129
236 8 127 128 130
237 2 127 128 131
238 7 129 128 130
239 1 129 128 131
240 1 130 128 131
241 2 128 131 134
242 1 128 131 132
243 1 128 131 133
244 8 132 131 134
245 8 133 131 134
246 7 132 131 133
247 4 131 134 135
248 8 134 135 136
249 8 134 135 137
250 2 134 135 138
251 7 136 135 137
252 1 136 135 138
253 1 137 135 138
254 1 135 138 139
255 1 135 138 140
256 2 135 138 141
257 7 139 138 140
258 8 139 138 141
259 8 140 138 141
260 4 138 141 142
261 2 141 142 145
262 8 141 142 143
263 8 141 142 144
264 1 143 142 145
265 1 144 142 145
266 7 143 142 144
267 2 142 145 148
268 1 142 145 146
269 1 142 145 147
270 8 146 145 148
271 8 147 145 148
272 7 146 145 147
273 4 145 148 149
274 8 148 149 150
275 8 148 149 151
276 2 148 149 152
277 7 150 149 151
278 1 150 149 152
279 1 151 149 152
280 1 149 152 153
281 1 149 152 154
282 2 149 152 155
283 7 153 152 154
284 8 153 152 155
285 8 154 152 155
286 4 152 155 156
287 8 155 156 157
288 8 155 156 158
289 2 155 156 159
290 7 157 156 158
291 1 157 156 159
292 1 158 156 159
293 2 156 159 162
294 1 156 159 160
295 1 156 159 161
296 8 160 159 162
297 8 161 159 162
298 7 160 159 161
299 4 159 162 163
300 8 162 163 164
301 8 162 163 165
302 2 162 163 166
303 7 164 163 165
304 1 164 163 166
305 1 165 163 166
306 1 163 166 167
307 1 163 166 168
308 2 163 166 169
309 7 167 166 168
310 8 167 166 169
311 8 168 166 169
312 4 166 169 170
313 8 169 170 171
314 8 169 170 172
315 2 169 170 173
316 7 171 170 172
317 1 171 170 173
318 1 172 170 173
319 2 170 173 176