
Running Job 1 of 1 cageMg_1A3.in
qchem cageMg_1A3.in_51252.0 /usr/local/bin/qscratch/qchem51252/ 1
                  Welcome to Q-Chem
     A Quantum Leap Into The Future Of Chemistry


 Q-Chem 4.2, Q-Chem, Inc., Pleasanton, CA (2014).

 Y. Shao,  Z. Gan,  E. Epifanovsky,  A. T. B. Gilbert,  M. Wormit,  
 J. Kussmann,  A. W. Lange,  A. Behn,  J. Deng,  X. Feng,  D. Ghosh,  
 M. Goldey,  P. R. Horn,  L. D. Jacobson,  I. Kaliman,  R. Z. Khaliullin,  
 T. Kus,  A. Landau,  J. Liu,  E. I. Proynov,  Y. M. Rhee,  R. M. Richard,  
 M. A. Rohrdanz,  R. P. Steele,  E. J. Sundstrom,  H. L. Woodcock III,  
 P. M. Zimmerman,  D. Zuev,  B. Albrecht,  E. Alguire,  B. Austin,  
 G. J. O. Beran,  Y. A. Bernard,  E. Berquist,  K. Brandhorst,  
 K. B. Bravaya,  S. T. Brown,  D. Casanova,  C.-M. Chang,  Y. Chen,  
 S. H. Chien,  K. D. Closser,  D. L. Crittenden,  M. Diedenhofen,  
 R. A. DiStasio Jr.,  H. Do,  A. D. Dutoi,  R. G. Edgar,  S. Fatehi,  
 L. Fusti-Molnar,  A. Ghysels,  A. Golubeva-Zadorozhnaya,  J. Gomes,  
 M. W. D. Hanson-Heine,  P. H. P. Harbach,  A. W. Hauser,  E. G. Hohenstein,  
 Z. C. Holden,  T.-C. Jagau,  H. Ji,  B. Kaduk,  K. Khistyaev,  Jaehoon Kim,  
 Jihan Kim,  R. A. King,  P. Klunzinger,  D. Kosenkov,  T. Kowalczyk,  
 C. M. Krauter,  K. U. Lao,  A. Laurent,  K. V. Lawler,  S. V. Levchenko,  
 C. Y. Lin,  F. Liu,  E. Livshits,  R. C. Lochan,  A. Luenser,  P. Manohar,  
 S. F. Manzer,  S.-P. Mao,  N. Mardirossian,  A. V. Marenich,  S. A. Maurer,  
 N. J. Mayhall,  C. M. Oana,  R. Olivares-Amaya,  D. P. O'Neill,  
 J. A. Parkhill,  T. M. Perrine,  R. Peverati,  P. A. Pieniazek,  A. Prociuk,  
 D. R. Rehn,  E. Rosta,  N. J. Russ,  N. Sergueev,  S. M. Sharada,  
 S. Sharma,  D. W. Small,  A. Sodt,  T. Stein,  D. Stuck,  Y.-C. Su,  
 A. J. W. Thom,  T. Tsuchimochi,  L. Vogt,  O. Vydrov,  T. Wang,  
 M. A. Watson,  J. Wenzel,  A. White,  C. F. Williams,  V. Vanovschi,  
 S. Yeganeh,  S. R. Yost,  Z.-Q. You,  I. Y. Zhang,  X. Zhang,  Y. Zhao,  
 B. R. Brooks,  G. K. L. Chan,  D. M. Chipman,  C. J. Cramer,  
 W. A. Goddard III,  M. S. Gordon,  W. J. Hehre,  A. Klamt,  
 H. F. Schaefer III,  M. W. Schmidt,  C. D. Sherrill,  D. G. Truhlar,  
 A. Warshel,  X. Xu,  A. Aspuru-Guzik,  R. Baer,  A. T. Bell,  N. A. Besley,  
 J.-D. Chai,  A. Dreuw,  B. D. Dunietz,  T. R. Furlani,  S. R. Gwaltney,  
 C.-P. Hsu,  Y. Jung,  J. Kong,  D. S. Lambrecht,  W. Liang,  C. Ochsenfeld,  
 V. A. Rassolov,  L. V. Slipchenko,  J. E. Subotnik,  T. Van Voorhis,  
 J. M. Herbert,  A. I. Krylov,  P. M. W. Gill,  M. Head-Gordon

 Contributors to earlier versions of Q-Chem not listed above: 
 R. D. Adamson,  J. Baker,  E. F. C. Byrd,  A. K. Chakraborty,  C.-L. Cheng,  
 H. Dachsel,  R. J. Doerksen,  G. Hawkins,  A. Heyden,  S. Hirata,  
 G. Kedziora,  F. J. Keil,  C. Kelley,  P. P. Korambath,  W. Kurlancheek,  
 A. M. Lee,  M. S. Lee,  D. Liotard,  I. Lotan,  P. E. Maslen,  N. Nair,  
 D. Neuhauser,  R. Olson,  B. Peters,  J. Ritchie,  N. E. Schultz,  
 N. Shenvi,  A. C. Simmonett,  K. S. Thanthiriwatte,  Q. Wu,  W. Zhang

 Q-Chem 4.2.0.0  for Mac (Intel) OS X

 Parts of Q-Chem use Armadillo 4.100.2 (Dirt Cruiser).
 http://arma.sourceforge.net/

 Q-Chem begins on Mon Jul 20 15:03:45 2015  

Host: 
0

     Scratch files written to /usr/local/bin/qscratch/qchem51252//
 Dec114 28887_epif 4730   
Processing $rem in /usr/local/bin/qchem4/config/preferences.
 MEM_TOTAL  6000 
Checking the input file for consistency...	...done.

--------------------------------------------------------------
User input:
--------------------------------------------------------------
$molecule
2 1
C   -1.5634344    3.6684473    0.7974220
C   -0.0687311    3.9460387    0.7978112
O    0.3215135    4.3959990   -0.4831666
C    1.7021604    4.7171724   -0.5056990
C    2.4960507    3.6347536   -1.2332024
O    2.3596728    2.4143815   -0.5383744
C    3.4066235    1.5346670   -0.8842713
C    3.0649912    0.1448562   -0.3649173
O    1.9032651   -0.3198274   -1.0223690
C    1.2513207   -1.3201306   -0.2643742
C    0.0341210   -0.7194486    0.4358058
O   -0.6361242   -1.6991486    1.1800749
C   -2.9627702    0.1459120   -3.0330922
C   -3.2302061   -1.1982814   -2.3722082
O   -3.2377899    1.1760723   -2.1096959
C   -3.1423005    2.4230692   -2.7609902
C    3.3378360   -0.9892193    3.7547949
C    2.3565993    0.1637697    3.9020880
O    2.9959192    1.3644861    3.5282189
C    2.1309222    2.4489450    3.7785673
Mg    0.0041118    1.6689453   -2.0387355
H   -1.8791357    3.3150943    1.8019831
H   -1.8044786    2.8848035    0.0491008
H   -2.1222824    4.5962498    0.5507186
H    0.4519909    2.9985827    1.0554615
H    0.1268250    4.7244790    1.5705162
H    2.1457774    4.8844580    0.5054889
H    1.8201155    5.6775843   -1.0507179
H    3.5566085    3.9794711   -1.2685733
H    2.1013382    3.5248835   -2.2674740
H    4.3516358    1.8675932   -0.3997186
H    3.5436193    1.4656094   -1.9890929
H    2.9227303    0.2379929    0.7374868
H    3.9109820   -0.5441867   -0.5800953
H    1.9161840   -1.8233297    0.4790352
H    0.9171917   -2.1174676   -0.9615475
H   -0.6552880   -0.2552357   -0.3049201
H    0.3592042    0.0876645    1.1239844
H   -1.1546074   -2.2438685    0.5317872
H   -3.6257306    0.2148150   -3.9267801
H   -1.8929034    0.1734978   -3.3407433
H   -4.2944215   -1.2634566   -2.0607612
H   -2.5834542   -1.3210778   -1.4788581
H   -3.0137189   -2.0193693   -3.0877556
H   -3.2923736    3.2233596   -2.0080910
H   -3.9424271    2.5379102   -3.5249147
H   -2.1334267    2.5796638   -3.2029052
H    2.8422145   -1.9421645    4.0363799
H    4.2141399   -0.8286734    4.4180318
H    3.6874916   -1.0641234    2.7037230
H    2.0302607    0.1942488    4.9673829
H    1.4877066   -0.0386617    3.2378868
H    2.6015821    3.3713682    3.3805951
H    1.9823591    2.5957842    4.8710175
H    1.1584000    2.3299056    3.2523366
$end

$rem
BASIS  =  3-21G
METHOD  =  HF
JOB_TYPE = optimization
$end
--------------------------------------------------------------
 ----------------------------------------------------------------
             Standard Nuclear Orientation (Angstroms)
    I     Atom           X                Y                Z
 ----------------------------------------------------------------
    1      C      -1.0559701476    -1.8944159710    -2.4481880291
    2      C       0.0333634360    -2.3901990056    -1.5107731701
    3      O      -0.5617968938    -3.0580366199    -0.4174130527
    4      C       0.4275012207    -3.5824635898     0.4521336788
    5      C       0.5361839785    -2.7363109657     1.7183750693
    6      O       0.9342616082    -1.4286174228     1.3688543371
    7      C       1.4838135556    -0.7688076194     2.4879127430
    8      C       1.6156291945     0.7125819871     2.1621448249
    9      O       0.3268907431     1.2554308236     1.9565980857
   10      C       0.3858014890     2.4329765247     1.1755028577
   11      C      -0.0416075259     2.1186883655    -0.2566949268
   12      O      -0.0058657943     3.2769793036    -1.0441349834
   13      C      -4.6151193983     1.2632128126     0.0818459102
   14      C      -4.3335845811     2.7074037430    -0.3057056629
   15      O      -4.2093750486     0.4163397874    -0.9706294614
   16      C      -4.6083237760    -0.9055965707    -0.6849234286
   17      C       4.6423580026     2.3248633886    -0.4014584089
   18      C       4.0001584296     1.3613015158    -1.3878825461
   19      O       4.1892796305     0.0397721167    -0.9317892109
   20      C       3.7037607043    -0.8604861934    -1.9017127050
   21      Mg     -1.7967269946    -0.5427439972     1.0336593068
   22      H      -0.5963065859    -1.3687629133    -3.3119396891
   23      H      -1.7256345378    -1.1888155811    -1.9135271793
   24      H      -1.6522804288    -2.7523725338    -2.8254355852
   25      H       0.6096028001    -1.5058346483    -1.1628423880
   26      H       0.6864111743    -3.0806821867    -2.0921905193
   27      H       1.4371127862    -3.6798310921    -0.0152906895
   28      H       0.1232294992    -4.6129507954     0.7329625649
   29      H       1.2818138753    -3.2375692684     2.3799189253
   30      H      -0.4544987527    -2.7055658751     2.2235380180
   31      H       2.4988732705    -1.1728312636     2.7002758543
   32      H       0.8337255456    -0.8669508389     3.3889793649
   33      H       2.2597199619     0.7875995679     1.2545508329
   34      H       2.1030209587     1.2328277375     3.0157113136
   35      H       1.3890380816     2.9242979266     1.1809523807
   36      H      -0.3169531426     3.1726603937     1.6141858780
   37      H      -1.0601936507     1.6695994077    -0.2726529647
   38      H       0.6481992677     1.3695960376    -0.6968400170
   39      H      -0.8155821983     3.8031473389    -0.8132062414
   40      H      -5.7102887410     1.1774265049     0.2720747149
   41      H      -4.0414341154     1.0355213186     1.0087045430
   42      H      -4.8997735201     2.9715835985    -1.2240958563
   43      H      -3.2494074146     2.8483849246    -0.4957729014
   44      H      -4.6450597563     3.3854983559     0.5166270192
   45      H      -4.2223573966    -1.5683431021    -1.4859483060
   46      H      -5.7165987637    -0.9987945782    -0.6884385658
   47      H      -4.1733372152    -1.2682340074     0.2726348525
   48      H       4.4905857383     3.3699381258    -0.7447065863
   49      H       5.7322393886     2.1235501630    -0.3293595452
   50      H       4.1847289613     2.2076754765     0.6032626746
   51      H       4.4854593950     1.5204024224    -2.3785636027
   52      H       2.9159113789     1.6024234726    -1.4460612784
   53      H       3.7586747909    -1.8872203831    -1.4850971505
   54      H       4.3353561079    -0.8384592762    -2.8169625320
   55      H       2.6357857206    -0.6674209013    -2.1447019743
 ----------------------------------------------------------------
 Molecular Point Group                 C1    NOp =  1
 Largest Abelian Subgroup              C1    NOp =  1
 Nuclear Repulsion Energy =  2024.9260203894 hartrees
 There are       88 alpha and       88 beta electrons
 Requested basis set is 3-21G
 There are 132 shells and 261 basis functions

Total QAlloc Memory Limit   6000 MB
Mega-Array Size        61 MB
MEM_STATIC part        62 MB
 A cutoff of  1.0D-11 yielded   5009 shell pairs
 There are     21635 function pairs
 
 -------------------------------------------------------
 OpenMP Integral Computing Module                       
 Release: version 1.0, May 2013, Q-Chem Inc. Pittsburgh 
 -------------------------------------------------------
 Integral Job Info:
 Integral job number is                      11
 Integral operator is                         1
 short-range coefficients               -999999
 long-range coefficients                -999999
 Omega coefficients                           0
 if combine SR and LR in K              -999999
 Integral screening is                        0
 Integral computing path is                   2
 max size of driver memory is            800000
 size of driver memory is                 45569
 size of scratch memory is               945100
 max col of scratch BK array                289
 max len of scratch array in speh3           22
 max len of scratch index in speh4            8
 max int batch size is                      520
 min int batch size is                       52
 fixed nKL is                                52
 max L of basis functions is                  1
 order of int derivative is                   0
 number of shells is                        132
 number of basis is                         261
 number of cartesian basis is               261
 number of contracted shell pairs          5009
 number of primitive shell pairs          10043
 maxK2 (contraction) of shell pair            9
 max number of K2 of shell pair               1
 max number of CS2 of shell pair            911
 max number of PS2 of shell pair           1899
 mem total for path MDJ                   49706
 -------------------------------------------------------
         cpu   0.02 wall   0.02
 Smallest overlap matrix eigenvalue = 1.25E-02

  Scale SEOQF with 1.000000e-02/1.000000e-01/1.000000e-01

 Standard Electronic Orientation quadrupole field applied
 Nucleus-field energy     =     0.0000000179 hartrees
 Guess from superposition of atomic densities
 Warning:  Energy on first SCF cycle will be non-variational
 A restricted Hartree-Fock SCF calculation will be
 performed using Pulay DIIS extrapolation
 SCF converges when DIIS error is below 1.0E-08
 ---------------------------------------
  Cycle       Energy         DIIS Error
 ---------------------------------------
    1   -1197.5900316232      5.76E-02
    2   -1191.0900933842      5.02E-03
    3   -1191.3394263135      2.16E-03
    4   -1191.3718720447      5.82E-04
    5   -1191.3752706358      1.29E-04
    6   -1191.3755131853      3.77E-05
    7   -1191.3755558888      1.19E-05
    8   -1191.3755613297      5.23E-06
    9   -1191.3755622671      1.78E-06
   10   -1191.3755624195      4.90E-07
   11   -1191.3755624305      1.60E-07
   12   -1191.3755624323      4.59E-08
   13   -1191.3755624335      1.72E-08
   14   -1191.3755624341      6.12E-09 Convergence criterion met
 ---------------------------------------
 SCF time:  CPU 23.50 s  wall 23.53 s
 SCF   energy in the final basis set = -1191.3755624341
 Total energy in the final basis set = -1191.3755624341
 Analysis of SCF Wavefunction
 
 --------------------------------------------------------------
 
                    Orbital Energies (a.u.)
 --------------------------------------------------------------
 
 Alpha MOs
 -- Occupied --
-49.219 -20.756 -20.753 -20.737 -20.729 -20.693 -20.621 -11.502
-11.497 -11.494 -11.491 -11.486 -11.480 -11.478 -11.474 -11.463
-11.401 -11.397 -11.389 -11.386 -11.319  -4.262  -2.776  -2.775
 -2.774  -1.684  -1.663  -1.661  -1.642  -1.601  -1.547  -1.316
 -1.281  -1.281  -1.246  -1.212  -1.186  -1.178  -1.111  -1.097
 -1.083  -1.083  -1.078  -1.068  -0.986  -0.968  -0.959  -0.953
 -0.951  -0.933  -0.923  -0.914  -0.906  -0.894  -0.888  -0.885
 -0.862  -0.850  -0.845  -0.841  -0.831  -0.815  -0.810  -0.808
 -0.788  -0.787  -0.769  -0.764  -0.754  -0.754  -0.749  -0.747
 -0.745  -0.734  -0.733  -0.729  -0.725  -0.715  -0.705  -0.699
 -0.691  -0.685  -0.664  -0.660  -0.659  -0.657  -0.626  -0.579
 -- Virtual --
 -0.364  -0.235  -0.208  -0.172  -0.057  -0.038  -0.018  -0.011
  0.009   0.022   0.026   0.032   0.044   0.057   0.060   0.069
  0.071   0.076   0.086   0.092   0.096   0.097   0.101   0.107
  0.111   0.112   0.116   0.120   0.125   0.132   0.136   0.140
  0.144   0.149   0.158   0.159   0.168   0.172   0.176   0.179
  0.183   0.190   0.195   0.200   0.209   0.214   0.220   0.222
  0.224   0.229   0.230   0.248   0.251   0.264   0.267   0.285
  0.288   0.308   0.326   0.659   0.684   0.688   0.695   0.702
  0.711   0.715   0.719   0.725   0.735   0.736   0.742   0.751
  0.752   0.757   0.762   0.774   0.786   0.789   0.796   0.799
  0.807   0.811   0.817   0.819   0.831   0.837   0.842   0.847
  0.865   0.885   0.890   0.901   0.905   0.907   0.934   0.942
  0.943   0.964   0.982   0.995   1.012   1.022   1.033   1.040
  1.045   1.053   1.062   1.078   1.079   1.086   1.094   1.107
  1.119   1.122   1.132   1.136   1.140   1.150   1.153   1.160
  1.164   1.169   1.173   1.177   1.192   1.198   1.199   1.222
  1.231   1.246   1.260   1.276   1.305   1.310   1.357   1.549
  1.566   1.625   1.634   1.669   1.683   1.718   1.724   1.744
  1.769   1.797   1.808   1.818   1.830   1.859   1.870   1.892
  1.900   1.915   1.951   1.957   2.029   2.065   2.093   2.103
  2.121   2.149   2.189   2.191   2.222   2.255   2.299   3.179
  3.245   3.262   3.271   3.291   3.350
 --------------------------------------------------------------
 
          Ground-State Mulliken Net Atomic Charges

     Atom                 Charge (a.u.)
  ----------------------------------------
      1 C                    -0.606062
      2 C                    -0.122959
      3 O                    -0.670640
      4 C                    -0.097030
      5 C                    -0.116620
      6 O                    -0.680403
      7 C                    -0.119479
      8 C                    -0.113303
      9 O                    -0.699913
     10 C                    -0.136088
     11 C                    -0.077067
     12 O                    -0.624681
     13 C                    -0.086417
     14 C                    -0.593925
     15 O                    -0.624688
     16 C                    -0.274096
     17 C                    -0.595393
     18 C                    -0.069899
     19 O                    -0.651819
     20 C                    -0.242796
     21 Mg                    1.457198
     22 H                     0.268361
     23 H                     0.131183
     24 H                     0.270696
     25 H                     0.212825
     26 H                     0.265570
     27 H                     0.266495
     28 H                     0.275439
     29 H                     0.282999
     30 H                     0.148090
     31 H                     0.286124
     32 H                     0.220265
     33 H                     0.276681
     34 H                     0.273715
     35 H                     0.294875
     36 H                     0.248494
     37 H                     0.080804
     38 H                     0.265906
     39 H                     0.402638
     40 H                     0.283857
     41 H                     0.066835
     42 H                     0.288317
     43 H                     0.182983
     44 H                     0.247733
     45 H                     0.283467
     46 H                     0.300326
     47 H                     0.049661
     48 H                     0.217189
     49 H                     0.249378
     50 H                     0.168531
     51 H                     0.220051
     52 H                     0.155736
     53 H                     0.200278
     54 H                     0.223225
     55 H                     0.137356
  ----------------------------------------
  Sum of atomic charges =     2.000000

 -----------------------------------------------------------------
                    Cartesian Multipole Moments
 -----------------------------------------------------------------
    Charge (ESU x 10^10)
                 9.6064
    Dipole Moment (Debye)
         X     -12.5953      Y      -4.0152      Z       8.2316
       Tot      15.5731
    Quadrupole Moments (Debye-Ang)
        XX     -60.2509     XY      -4.2816     YY     -91.4805
        XZ     -10.0402     YZ      -0.0172     ZZ    -106.3650
    Octopole Moments (Debye-Ang^2)
       XXX    -261.9732    XXY      35.2047    XYY     -12.5394
       YYY     -18.2259    XXZ       7.4579    XYZ      -1.3074
       YYZ      27.7333    XZZ      27.4178    YZZ     -46.7503
       ZZZ      27.1956
    Hexadecapole Moments (Debye-Ang^3)
      XXXX   -5010.5317   XXXY      14.0499   XXYY   -1354.9822
      XYYY    -240.1363   YYYY   -2916.8287   XXXZ     -91.9293
      XXYZ      -7.6027   XYYZ      38.5184   YYYZ     -32.3091
      XXZZ   -1210.6023   XYZZ       7.1460   YYZZ    -781.4320
      XZZZ       8.7740   YZZZ       3.9070   ZZZZ   -1631.8082
 -----------------------------------------------------------------
 Calculating analytic gradient of the SCF energy
         cpu   0.06 wall   0.07
 Gradient of Coulomb and Exchange Energy
            1           2           3           4           5           6
    1  -3.9038334   6.6709266   7.9277630   1.4641387  -3.3991425  -5.5407401
    2   4.2253845   6.0185644  12.7678704   1.1753239   5.0390938   4.3459749
    3   4.0426553   4.8946476   3.6422337  -2.7678794  -1.2880815  -2.7339256
            7           8           9          10          11          12
    1  -2.2502081   2.0834390   2.9407105   0.5781466   0.7259041  -5.3023310
    2   0.4530139  -0.3070826  -6.8721765   3.1259194 -12.9784678 -10.5934159
    3  -2.1933456  -7.7731999 -12.3215074   2.2060133  -4.7413037  11.2560444
           13          14          15          16          17          18
    1   3.8718113   6.9781831   5.6628232   6.4959866  -3.7874434  -7.4385160
    2  -2.8488167  -0.6345369  -2.0763561  -1.4962949  -2.6410082  -1.7890378
    3   1.5874937  -2.4294540   8.9874541  -2.5371310   4.4718194   0.2962624
           19          20          21          22          23          24
    1 -11.6596865  -5.5998582  11.5301796  -2.2877425   3.1677510   2.9950269
    2   3.2462370  -2.2021974   2.3007031  -2.2833813  -2.7017598   4.8606802
    3  -2.6572062   4.6497143  -8.0848739   5.2722987  -0.7610093   2.7333694
           25          26          27          28          29          30
    1  -2.7238739  -3.3245838  -6.1809983   1.0542286  -4.2305699   4.3407493
    2  -4.5780045   4.1074003   2.3128794   6.4714262   4.1726916   1.6184032
    3   0.0540428   4.6293426   1.9159581  -1.7195206  -3.6937892  -3.0340891
           31          32          33          34          35          36
    1  -6.5299993   2.2743383  -4.9308328  -3.4108473  -5.7453293   3.7386024
    2   1.9702218   0.0997139  -0.1757011  -2.7918770  -4.4275296  -5.2234635
    3  -1.9920665  -6.1229254   4.0813418  -5.5554235  -0.1673152  -2.7385750
           37          38          39          40          41          42
    1   3.2331332  -3.9619942   5.6012387   6.1646429  -0.0092763   3.3223642
    2   0.2207097   4.0309544  -3.2709641  -0.7331770  -1.1903142  -1.9568672
    3   1.1366756   2.9832459  -1.6663185  -0.8538922  -3.5263814   4.5300831
           43          44          45          46          47          48
    1  -4.1695381   1.8918511  -1.0730150   6.2789668   0.7695271  -0.0211091
    2  -1.5665397  -3.5207293   4.3474576   1.0843663   2.8161477  -4.9292700
    3   0.9250143  -3.5710126   4.4779719   0.8025432  -2.3545182   1.5593161
           49          50          51          52          53          54
    1  -5.6353641   1.0619060  -3.0580862   3.6902748  -0.8346227  -3.4217365
    2   0.4352462  -0.2382192  -1.7500151  -2.3574110   5.9182736   0.7618199
    3  -0.1816222  -4.5365608   4.6670815   0.5528647  -1.1330896   4.6823503
           55
    1   3.9166650
    2   0.2081376
    3   2.0981794
 Gradient of SCF Energy
            1           2           3           4           5           6
    1   0.0095749  -0.0211920   0.0135800  -0.0177142  -0.0021802   0.0354636
    2   0.0028551  -0.0247937  -0.0189790   0.0456422   0.0511749  -0.0146396
    3   0.0137007   0.0466627  -0.0184491  -0.0270327  -0.0004646   0.0118009
            7           8           9          10          11          12
    1  -0.0295109  -0.0526363   0.0327961   0.0163045  -0.0220809   0.0286723
    2  -0.0276200   0.0201601   0.0222217  -0.0564753   0.0274227  -0.0165558
    3  -0.0399047  -0.0110921   0.0105346   0.0041598   0.0044407  -0.0037021
           13          14          15          16          17          18
    1   0.0277220  -0.0057993  -0.0172970   0.0138037  -0.0099879  -0.0030804
    2  -0.0388870  -0.0192791   0.0084885   0.0382114  -0.0121704  -0.0376518
    3  -0.0038250   0.0020383  -0.0104814   0.0404506  -0.0121986   0.0107906
           19          20          21          22          23          24
    1   0.0068577   0.0021637  -0.0385897   0.0108046  -0.0045918  -0.0079113
    2   0.0027686   0.0419571  -0.0017203   0.0071989   0.0054763  -0.0173303
    3  -0.0081799   0.0138168   0.0150795  -0.0149973   0.0086955  -0.0068548
           25          26          27          28          29          30
    1   0.0021673   0.0085666   0.0224972  -0.0039237   0.0173777  -0.0109052
    2   0.0217015  -0.0135456  -0.0086928  -0.0185656  -0.0133176   0.0025392
    3   0.0041081  -0.0161830  -0.0055436   0.0034750   0.0082587  -0.0004047
           31          32          33          34          35          36
    1   0.0208921  -0.0110075   0.0145825   0.0075466   0.0196389  -0.0115623
    2  -0.0055879   0.0037348  -0.0019582   0.0088700   0.0158720   0.0122750
    3   0.0006268   0.0153862  -0.0165284   0.0175363   0.0016124   0.0059393
           37          38          39          40          41          42
    1  -0.0014033   0.0114439  -0.0230887  -0.0230719   0.0021412  -0.0112676
    2   0.0042912  -0.0144951   0.0003872   0.0061426   0.0069811   0.0051965
    3  -0.0079775  -0.0060978   0.0135523  -0.0039663  -0.0017805  -0.0164017
           43          44          45          46          47          48
    1   0.0174775  -0.0051734   0.0067409  -0.0210835   0.0018062  -0.0035128
    2   0.0001284   0.0102156  -0.0122705   0.0015473  -0.0015788   0.0166285
    3  -0.0005028   0.0148749  -0.0137827  -0.0112562  -0.0052026  -0.0067126
           49          50          51          52          53          54
    1   0.0197045  -0.0096562   0.0148312  -0.0146275  -0.0015652   0.0162655
    2  -0.0038835  -0.0024147   0.0054541   0.0058489  -0.0168884  -0.0015929
    3  -0.0007313   0.0145163  -0.0142215   0.0073862   0.0054434  -0.0124479
           55
    1  -0.0170022
    2  -0.0004971
    3   0.0020365
 Max gradient component =       5.648E-02
 RMS gradient           =       1.760E-02
 Gradient time:  CPU 8.81 s  wall 8.86 s
 Geometry Optimization Parameters
   NAtoms,    NIC,     NZ,  NCons,   NDum,   NFix, NCnnct, MaxDiis
       55     417       0       0       0       0       0       0


** GEOMETRY OPTIMIZATION IN DELOCALIZED INTERNAL COORDINATES **
   Searching for a Minimum

   Optimization Cycle:   1

                       Coordinates (Angstroms)
     ATOM                X               Y               Z
      1  C        -1.0559701476   -1.8944159710   -2.4481880291
      2  C         0.0333634360   -2.3901990056   -1.5107731701
      3  O        -0.5617968938   -3.0580366199   -0.4174130527
      4  C         0.4275012207   -3.5824635898    0.4521336788
      5  C         0.5361839785   -2.7363109657    1.7183750693
      6  O         0.9342616082   -1.4286174228    1.3688543371
      7  C         1.4838135556   -0.7688076194    2.4879127430
      8  C         1.6156291945    0.7125819871    2.1621448249
      9  O         0.3268907431    1.2554308236    1.9565980857
     10  C         0.3858014890    2.4329765247    1.1755028577
     11  C        -0.0416075259    2.1186883655   -0.2566949268
     12  O        -0.0058657943    3.2769793036   -1.0441349834
     13  C        -4.6151193983    1.2632128126    0.0818459102
     14  C        -4.3335845811    2.7074037430   -0.3057056629
     15  O        -4.2093750486    0.4163397874   -0.9706294614
     16  C        -4.6083237760   -0.9055965707   -0.6849234286
     17  C         4.6423580026    2.3248633886   -0.4014584089
     18  C         4.0001584296    1.3613015158   -1.3878825461
     19  O         4.1892796305    0.0397721167   -0.9317892109
     20  C         3.7037607043   -0.8604861934   -1.9017127050
     21  Mg       -1.7967269946   -0.5427439972    1.0336593068
     22  H        -0.5963065859   -1.3687629133   -3.3119396891
     23  H        -1.7256345378   -1.1888155811   -1.9135271793
     24  H        -1.6522804288   -2.7523725338   -2.8254355852
     25  H         0.6096028001   -1.5058346483   -1.1628423880
     26  H         0.6864111743   -3.0806821867   -2.0921905193
     27  H         1.4371127862   -3.6798310921   -0.0152906895
     28  H         0.1232294992   -4.6129507954    0.7329625649
     29  H         1.2818138753   -3.2375692684    2.3799189253
     30  H        -0.4544987527   -2.7055658751    2.2235380180
     31  H         2.4988732705   -1.1728312636    2.7002758543
     32  H         0.8337255456   -0.8669508389    3.3889793649
     33  H         2.2597199619    0.7875995679    1.2545508329
     34  H         2.1030209587    1.2328277375    3.0157113136
     35  H         1.3890380816    2.9242979266    1.1809523807
     36  H        -0.3169531426    3.1726603937    1.6141858780
     37  H        -1.0601936507    1.6695994077   -0.2726529647
     38  H         0.6481992677    1.3695960376   -0.6968400170
     39  H        -0.8155821983    3.8031473389   -0.8132062414
     40  H        -5.7102887410    1.1774265049    0.2720747149
     41  H        -4.0414341154    1.0355213186    1.0087045430
     42  H        -4.8997735201    2.9715835985   -1.2240958563
     43  H        -3.2494074146    2.8483849246   -0.4957729014
     44  H        -4.6450597563    3.3854983559    0.5166270192
     45  H        -4.2223573966   -1.5683431021   -1.4859483060
     46  H        -5.7165987637   -0.9987945782   -0.6884385658
     47  H        -4.1733372152   -1.2682340074    0.2726348525
     48  H         4.4905857383    3.3699381258   -0.7447065863
     49  H         5.7322393886    2.1235501630   -0.3293595452
     50  H         4.1847289613    2.2076754765    0.6032626746
     51  H         4.4854593950    1.5204024224   -2.3785636027
     52  H         2.9159113789    1.6024234726   -1.4460612784
     53  H         3.7586747909   -1.8872203831   -1.4850971505
     54  H         4.3353561079   -0.8384592762   -2.8169625320
     55  H         2.6357857206   -0.6674209013   -2.1447019743
   Point Group: c1    Number of degrees of freedom:   159


   Energy is  -1191.375562434


 Attempting to Generate Delocalized Internal Coordinates
 GETINT wrote B to file, NVib is          159
 calling HSSCONV
 HCONV 3*NATOMS:          165
 wrote HINT to file
  writing hessian 

159 Hessian modes will be used to form the next step
  Hessian Eigenvalues:
     0.002585    0.003322    0.003522    0.004281    0.004818    0.004986
     0.005551    0.005982    0.006730    0.007591    0.008340    0.008883
     0.009977    0.011142    0.012850    0.013362    0.014837    0.015444
     0.015649    0.017468    0.018270    0.018700    0.021759    0.022828
     0.024422    0.026302    0.027236    0.027972    0.030957    0.034084
     0.035257    0.037572    0.042138    0.043932    0.045079    0.046537
     0.048334    0.050563    0.051818    0.053430    0.053639    0.054745
     0.056090    0.056999    0.057830    0.058756    0.059095    0.059897
     0.060090    0.061689    0.062603    0.064529    0.066866    0.068042
     0.069752    0.070680    0.072901    0.075231    0.076110    0.081717
     0.082201    0.084015    0.086702    0.087394    0.088937    0.089181
     0.090299    0.094118    0.094286    0.095436    0.098951    0.100937
     0.103268    0.108381    0.109870    0.110333    0.110661    0.111313
     0.113405    0.113532    0.120969    0.121489    0.122558    0.124554
     0.133436    0.135592    0.136034    0.137554    0.139584    0.141348
     0.143314    0.143756    0.147262    0.151328    0.151640    0.155337
     0.160410    0.163157    0.167146    0.179407    0.183584    0.187644
     0.191242    0.198933    0.201212    0.202331    0.224448    0.232273
     0.288055    0.290536    0.293601    0.295854    0.297585    0.298866
     0.299892    0.301373    0.313142    0.317445    0.318598    0.318887
     0.320003    0.320291    0.320326    0.320895    0.321024    0.321203
     0.321667    0.322256    0.322589    0.322773    0.322887    0.323400
     0.323639    0.323659    0.323690    0.323779    0.324689    0.325100
     0.325168    0.325253    0.325302    0.325363    0.325405    0.325539
     0.325555    0.326464    0.326637    0.413898    0.417185    0.420787
     0.423330    0.427053    0.430416    0.433310    0.436639    0.437390
     0.438049    0.439293    0.447762

 Minimum Search - Taking Simple RFO Step
 Searching for Lamda that Minimizes Along All modes
 Value Taken    Lamda =  -0.10348869
 Calculated Step too Large.  Step scaled by  0.446734
 Step Taken.  Stepsize is  0.300000

                             Maximum     Tolerance    Cnvgd?
         Gradient           0.049691      0.000300      NO
         Displacement       0.100957      0.001200      NO
         Energy change     *********      0.000001      NO


 New Cartesian Coordinates Obtained by Inverse Iteration

 Displacement from previous Coordinates is:  0.956375
 ----------------------------------------------------------------
             Standard Nuclear Orientation (Angstroms)
    I     Atom           X                Y                Z
 ----------------------------------------------------------------
    1      C      -1.0621292007    -1.8177804548    -2.4445673636
    2      C       0.0311506926    -2.3303580191    -1.5201527193
    3      O      -0.5795833275    -2.9942140190    -0.4105653298
    4      C       0.3747306607    -3.5979457480     0.4663120169
    5      C       0.5072028702    -2.7805549928     1.7388788563
    6      O       0.9488505409    -1.4737268766     1.3882414122
    7      C       1.4966720010    -0.7869479212     2.5049018083
    8      C       1.6104966058     0.6781170809     2.1362909557
    9      O       0.2954568861     1.1922338351     1.8928408655
   10      C       0.3363376153     2.3857316865     1.1098268461
   11      C      -0.0555908454     2.0712781773    -0.3262631073
   12      O      -0.0220022243     3.2315230416    -1.1247408506
   13      C      -4.5674749469     1.2824367365     0.1220061483
   14      C      -4.3047589433     2.7173426426    -0.3091362363
   15      O      -4.1729376952     0.4067019313    -0.9242754401
   16      C      -4.5476642326    -0.9307097851    -0.6482233362
   17      C       4.6177516672     2.3614550824    -0.3748273963
   18      C       3.9969220280     1.4015952535    -1.3826428925
   19      O       4.1847909238     0.0685176423    -0.9291243109
   20      C       3.7275222655    -0.8673795136    -1.8911744337
   21      Mg     -1.6965981750    -0.5396497261     1.0178337932
   22      H      -0.6229148963    -1.2989116982    -3.3092729005
   23      H      -1.7135522132    -1.1179429920    -1.9024086042
   24      H      -1.6713631243    -2.6586584785    -2.8070739012
   25      H       0.6295900983    -1.4750888091    -1.1744683051
   26      H       0.6596829191    -3.0263700594    -2.0988241112
   27      H       1.3687705672    -3.7248422304     0.0037517343
   28      H       0.0243331063    -4.6077425919     0.7261418000
   29      H       1.2149952221    -3.2981783082     2.4082809451
   30      H      -0.4823925425    -2.7189396772     2.2315189526
   31      H       2.4944051204    -1.1850721702     2.7471336565
   32      H       0.8365228387    -0.8649506544     3.3877111029
   33      H       2.2567862481     0.7603648755     1.2455793397
   34      H       2.0705707832     1.2190891811     2.9770387536
   35      H       1.3216995618     2.8814835963     1.1338521188
   36      H      -0.3791177375     3.1061229623     1.5350972657
   37      H      -1.0700991369     1.6200637531    -0.3238087978
   38      H       0.6416965389     1.3388857149    -0.7550777422
   39      H      -0.8120964872     3.7703544093    -0.9027269670
   40      H      -5.6428523577     1.1806912345     0.3446587053
   41      H      -3.9743186486     1.0667487232     1.0406487555
   42      H      -4.8840131316     2.9561242971    -1.2125516082
   43      H      -3.2374137414     2.8409994694    -0.5233652882
   44      H      -4.5942225283     3.4119935493     0.4933412563
   45      H      -4.1769386734    -1.5735092406    -1.4519995365
   46      H      -5.6416339794    -1.0448129364    -0.6085971903
   47      H      -4.0852511035    -1.2775626457     0.2990487229
   48      H       4.4621283812     3.3994571222    -0.7052696459
   49      H       5.6977334528     2.1743446721    -0.2863208220
   50      H       4.1558205808     2.2287107128     0.6156859457
   51      H       4.4826167573     1.5656453166    -2.3598458647
   52      H       2.9180570945     1.6232923121    -1.4640434234
   53      H       3.7875976939    -1.8750873235    -1.4549200950
   54      H       4.3539916502    -0.8564968634    -2.7970825742
   55      H       2.6724508359    -0.6745053356    -2.1468043714
 ----------------------------------------------------------------
 Molecular Point Group                 C1    NOp =  1
 Largest Abelian Subgroup              C1    NOp =  1
 Nuclear Repulsion Energy =  2033.7458341490 hartrees
 There are       88 alpha and       88 beta electrons
 Applying Cartesian multipole field
    Component          Value
    ---------          -----
     (2,0,0)        1.00000E-12
     (0,2,0)        2.00000E-11
     (0,0,2)       -3.00000E-11
 Nucleus-field energy     =     0.0000000176 hartrees
 Requested basis set is 3-21G
 There are 132 shells and 261 basis functions
 A cutoff of  1.0D-11 yielded   5051 shell pairs
 There are     21809 function pairs
         cpu   0.02 wall   0.02
 Smallest overlap matrix eigenvalue = 1.23E-02
 Guess MOs from SCF MO coefficient file
Reading MOs from coefficient file
GuessMan calls MO2Den with 88 electrons (IDen = 0)
Reading MOs from coefficient file
GuessMan calls MO2Den with 88 electrons (IDen = 1)
 A restricted Hartree-Fock SCF calculation will be
 performed using Pulay DIIS extrapolation
 SCF converges when DIIS error is below 1.0E-08
Geometry optimization detected.  Setting ReadMinima to 0
Setting SaveMinima to 0
 ---------------------------------------
  Cycle       Energy         DIIS Error
 ---------------------------------------
    1   -1191.6084180201      1.58E-03
    2   -1191.4162194459      2.51E-04
    3   -1191.4171178091      9.91E-05
    4   -1191.4172305274      3.69E-05
    5   -1191.4172530296      1.17E-05
    6   -1191.4172552532      4.08E-06
    7   -1191.4172557112      1.07E-06
    8   -1191.4172557530      3.63E-07
    9   -1191.4172557551      1.36E-07
   10   -1191.4172557533      3.98E-08
   11   -1191.4172557515      1.28E-08
   12   -1191.4172557501      4.32E-09 Convergence criterion met
 ---------------------------------------
 SCF time:  CPU 20.10 s  wall 20.12 s
 SCF   energy in the final basis set = -1191.4172557501
 Total energy in the final basis set = -1191.4172557501
 Analysis of SCF Wavefunction
 
 --------------------------------------------------------------
 
                    Orbital Energies (a.u.)
 --------------------------------------------------------------
 
 Alpha MOs
 -- Occupied --
-49.207 -20.764 -20.757 -20.732 -20.729 -20.694 -20.620 -11.502
-11.494 -11.491 -11.488 -11.488 -11.483 -11.482 -11.475 -11.465
-11.400 -11.391 -11.388 -11.386 -11.318  -4.249  -2.764  -2.763
 -2.762  -1.680  -1.659  -1.648  -1.634  -1.601  -1.539  -1.323
 -1.287  -1.279  -1.252  -1.220  -1.188  -1.177  -1.115  -1.102
 -1.090  -1.083  -1.081  -1.073  -0.991  -0.971  -0.963  -0.957
 -0.944  -0.936  -0.925  -0.910  -0.909  -0.895  -0.889  -0.884
 -0.864  -0.851  -0.847  -0.841  -0.836  -0.820  -0.813  -0.810
 -0.791  -0.789  -0.771  -0.767  -0.761  -0.756  -0.754  -0.752
 -0.745  -0.741  -0.739  -0.736  -0.721  -0.718  -0.709  -0.704
 -0.690  -0.686  -0.670  -0.668  -0.665  -0.662  -0.626  -0.580
 -- Virtual --
 -0.351  -0.226  -0.195  -0.156  -0.052  -0.037  -0.016  -0.011
  0.011   0.022   0.025   0.031   0.043   0.060   0.064   0.070
  0.073   0.079   0.087   0.092   0.097   0.097   0.102   0.109
  0.113   0.114   0.118   0.121   0.125   0.133   0.139   0.142
  0.147   0.152   0.160   0.162   0.165   0.172   0.174   0.178
  0.184   0.186   0.194   0.198   0.207   0.213   0.216   0.222
  0.225   0.228   0.231   0.246   0.252   0.258   0.262   0.283
  0.287   0.314   0.323   0.653   0.673   0.684   0.691   0.697
  0.703   0.707   0.710   0.722   0.729   0.733   0.736   0.745
  0.746   0.751   0.757   0.769   0.782   0.783   0.789   0.793
  0.802   0.804   0.812   0.820   0.826   0.829   0.839   0.844
  0.863   0.879   0.888   0.896   0.899   0.905   0.936   0.939
  0.941   0.964   0.983   0.999   1.022   1.025   1.037   1.047
  1.052   1.059   1.071   1.084   1.089   1.093   1.099   1.114
  1.123   1.133   1.136   1.143   1.146   1.154   1.157   1.164
  1.173   1.175   1.178   1.184   1.195   1.204   1.205   1.223
  1.235   1.252   1.261   1.276   1.301   1.309   1.360   1.553
  1.577   1.628   1.636   1.670   1.686   1.714   1.722   1.744
  1.770   1.794   1.812   1.818   1.831   1.860   1.869   1.890
  1.895   1.909   1.946   1.961   2.027   2.063   2.093   2.102
  2.136   2.153   2.183   2.186   2.226   2.243   2.293   3.173
  3.238   3.245   3.253   3.277   3.338
 --------------------------------------------------------------
 
          Ground-State Mulliken Net Atomic Charges

     Atom                 Charge (a.u.)
  ----------------------------------------
      1 C                    -0.615136
      2 C                    -0.134564
      3 O                    -0.669596
      4 C                    -0.099109
      5 C                    -0.127356
      6 O                    -0.677261
      7 C                    -0.126081
      8 C                    -0.124951
      9 O                    -0.698727
     10 C                    -0.146351
     11 C                    -0.084553
     12 O                    -0.624489
     13 C                    -0.087729
     14 C                    -0.599462
     15 O                    -0.630411
     16 C                    -0.269824
     17 C                    -0.601795
     18 C                    -0.074802
     19 O                    -0.653681
     20 C                    -0.246515
     21 Mg                    1.435886
     22 H                     0.272355
     23 H                     0.139138
     24 H                     0.273817
     25 H                     0.218236
     26 H                     0.270508
     27 H                     0.269768
     28 H                     0.278371
     29 H                     0.287661
     30 H                     0.153591
     31 H                     0.291356
     32 H                     0.225879
     33 H                     0.285163
     34 H                     0.279421
     35 H                     0.298785
     36 H                     0.253417
     37 H                     0.084156
     38 H                     0.271250
     39 H                     0.406400
     40 H                     0.281940
     41 H                     0.072541
     42 H                     0.289016
     43 H                     0.184928
     44 H                     0.249018
     45 H                     0.284507
     46 H                     0.297333
     47 H                     0.048401
     48 H                     0.220054
     49 H                     0.253039
     50 H                     0.169739
     51 H                     0.223302
     52 H                     0.156666
     53 H                     0.203868
     54 H                     0.224802
     55 H                     0.138079
  ----------------------------------------
  Sum of atomic charges =     2.000000

 -----------------------------------------------------------------
                    Cartesian Multipole Moments
 -----------------------------------------------------------------
    Charge (ESU x 10^10)
                 9.6064
    Dipole Moment (Debye)
         X     -11.4915      Y      -4.0504      Z       8.2073
       Tot      14.6909
    Quadrupole Moments (Debye-Ang)
        XX     -63.9447     XY      -4.2902     YY     -89.1126
        XZ      -9.1452     YZ      -0.4660     ZZ    -105.2592
    Octopole Moments (Debye-Ang^2)
       XXX    -242.0690    XXY      35.5443    XYY     -12.5548
       YYY     -22.1389    XXZ       8.0622    XYZ      -1.9023
       YYZ      28.8405    XZZ      29.7060    YZZ     -47.5162
       ZZZ      30.3080
    Hexadecapole Moments (Debye-Ang^3)
      XXXX   -5004.3299   XXXY      16.0439   XXYY   -1327.7471
      XYYY    -235.0207   YYYY   -2838.8746   XXXZ     -93.9941
      XXYZ       4.0853   XYYZ      40.2733   YYYZ     -21.7248
      XXZZ   -1192.8508   XYZZ       1.3769   YYZZ    -768.7632
      XZZZ      24.9815   YZZZ      28.0253   ZZZZ   -1603.2075
 -----------------------------------------------------------------
 Calculating analytic gradient of the SCF energy
         cpu   0.07 wall   0.07
 Gradient of Coulomb and Exchange Energy
            1           2           3           4           5           6
    1  -4.2546038   7.1061582   7.5322818   1.6407658  -3.4616901  -6.0548029
    2   4.3166882   5.6370627  12.7437553   1.5320759   5.5864944   4.7603870
    3   4.3656633   5.2712354   4.0145890  -3.3176818  -1.0008895  -3.1361019
            7           8           9          10          11          12
    1  -2.8814521   2.1947280   2.3899906   1.0173753   0.5707465  -5.3241060
    2   0.1093438   0.0590679  -7.2659193   3.1800349 -12.9354818 -10.5871235
    3  -2.3066598  -7.8538682 -12.2249160   2.4021349  -4.4975390  11.5587871
           13          14          15          16          17          18
    1   3.8792634   7.0585362   6.1365043   6.5653273  -3.8498118  -7.6520044
    2  -3.6296685  -0.9663116  -1.9169212  -1.0411863  -2.7973408  -2.3387980
    3   1.8118065  -2.5478704   8.4063538  -1.9870120   4.4029141  -0.0917965
           19          20          21          22          23          24
    1 -11.3632664  -5.8556740  12.3214168  -2.1570819   3.2179306   3.1500983
    2   3.0289529  -1.4971268   2.1833954  -2.3091073  -2.6725350   4.7959864
    3  -2.3834752   4.5962439  -7.9833421   5.4136124  -0.7991763   2.6932637
           25          26          27          28          29          30
    1  -3.0443873  -3.3064941  -6.1442730   1.2923734  -4.0446752   4.3854618
    2  -4.4693737   4.1642587   2.4860313   6.4654488   4.2870375   1.5613412
    3   0.0156333   4.7166206   1.9774809  -1.7205734  -3.8974329  -3.0307783
           31          32          33          34          35          36
    1  -6.5131845   2.3617480  -5.0737921  -3.4202482  -5.7582373   3.8870157
    2   2.0791692   0.0131659  -0.3768302  -2.8695002  -4.5017353  -5.2493066
    3  -2.2745474  -6.0874158   4.0935019  -5.5737175  -0.1842007  -2.6499611
           37          38          39          40          41          42
    1   3.2753732  -4.2025600   5.5690971   6.1279469  -0.1079332   3.4222752
    2   0.0862001   4.0098223  -3.5367401  -0.5628860  -1.0195246  -1.8683979
    3   0.7550588   2.9989900  -1.5817581  -1.1210764  -3.6224073   4.5115458
           43          44          45          46          47          48
    1  -4.1041873   1.8215431  -1.0059491   6.2809548   0.7120662  -0.0121700
    2  -1.4002496  -3.6458376   4.3846464   1.2356212   2.6488886  -4.9414258
    3   1.0282284  -3.5058129   4.5769204   0.4813260  -2.4349739   1.4992091
           49          50          51          52          53          54
    1  -5.6358766   1.0375582  -2.9863187   3.6925084  -0.8913726  -3.3559918
    2   0.3483873  -0.1855975  -1.7422715  -2.1893722   5.9422057   0.7985175
    3  -0.3192379  -4.5280462   4.7084310   0.7691562  -1.2501075   4.6967898
           55
    1   3.8150994
    2   0.0725822
    3   2.1468799
 Gradient of SCF Energy
            1           2           3           4           5           6
    1   0.0077180  -0.0153536   0.0109449  -0.0112414  -0.0000689   0.0337172
    2   0.0041689  -0.0156706  -0.0222992   0.0352617   0.0355040  -0.0103189
    3   0.0076152   0.0350546  -0.0180113  -0.0162872   0.0003740   0.0073267
            7           8           9          10          11          12
    1  -0.0182251  -0.0397394   0.0291147   0.0112111  -0.0142976   0.0190067
    2  -0.0206392   0.0136534   0.0231178  -0.0462009   0.0191576  -0.0065558
    3  -0.0285637  -0.0098233   0.0136684   0.0014959   0.0034694  -0.0055156
           13          14          15          16          17          18
    1   0.0216356  -0.0043254  -0.0162058   0.0114835  -0.0060398  -0.0020305
    2  -0.0250422  -0.0112907   0.0059711   0.0225058  -0.0071781  -0.0249651
    3  -0.0033397   0.0001505  -0.0073627   0.0260481  -0.0084295   0.0076725
           19          20          21          22          23          24
    1   0.0042365   0.0017412  -0.0435770   0.0064600  -0.0010353  -0.0052300
    2   0.0020832   0.0260034  -0.0008369   0.0042569   0.0007264  -0.0112347
    3  -0.0077346   0.0081062   0.0143508  -0.0105091   0.0058522  -0.0041720
           25          26          27          28          29          30
    1   0.0005621   0.0047884   0.0148494  -0.0013125   0.0105509  -0.0079461
    2   0.0153807  -0.0080009  -0.0079635  -0.0127267  -0.0104623   0.0017424
    3   0.0015684  -0.0129957  -0.0027141   0.0037909   0.0056848  -0.0017251
           31          32          33          34          35          36
    1   0.0139340  -0.0077112   0.0114021   0.0065301   0.0120437  -0.0078671
    2  -0.0038492   0.0042205  -0.0004686   0.0038101   0.0120579   0.0093852
    3   0.0018373   0.0098449  -0.0101487   0.0121270   0.0007478   0.0023745
           37          38          39          40          41          42
    1  -0.0005267   0.0084711  -0.0142405  -0.0156432   0.0022537  -0.0076342
    2   0.0049612  -0.0096778  -0.0024373   0.0051626   0.0044978   0.0039288
    3  -0.0028440  -0.0036196   0.0102321  -0.0029729  -0.0002844  -0.0103891
           43          44          45          46          47          48
    1   0.0088248  -0.0031914   0.0027431  -0.0140565   0.0004769  -0.0023855
    2  -0.0024487   0.0070800  -0.0076324   0.0006716   0.0011001   0.0107731
    3   0.0010970   0.0095372  -0.0073316  -0.0089334  -0.0059770  -0.0044907
           49          50          51          52          53          54
    1   0.0128775  -0.0063979   0.0101543  -0.0101931  -0.0014686   0.0107907
    2  -0.0018934  -0.0018962   0.0045814   0.0032231  -0.0121931  -0.0022171
    3   0.0000808   0.0095130  -0.0091912   0.0056435   0.0029206  -0.0081432
           55
    1  -0.0105780
    2   0.0011129
    3   0.0033253
 Max gradient component =       4.620E-02
 RMS gradient           =       1.299E-02
 Gradient time:  CPU 9.07 s  wall 9.08 s
 Geometry Optimization Parameters
   NAtoms,    NIC,     NZ,  NCons,   NDum,   NFix, NCnnct, MaxDiis
       55     417       0       0       0       0       0       0

 Cartesian Hessian Update
 Hessian Updated using BFGS Update


** GEOMETRY OPTIMIZATION IN DELOCALIZED INTERNAL COORDINATES **
   Searching for a Minimum

   Optimization Cycle:   2

                       Coordinates (Angstroms)
     ATOM                X               Y               Z
      1  C        -1.0621292007   -1.8177804548   -2.4445673636
      2  C         0.0311506926   -2.3303580191   -1.5201527193
      3  O        -0.5795833275   -2.9942140190   -0.4105653298
      4  C         0.3747306607   -3.5979457480    0.4663120169
      5  C         0.5072028702   -2.7805549928    1.7388788563
      6  O         0.9488505409   -1.4737268766    1.3882414122
      7  C         1.4966720010   -0.7869479212    2.5049018083
      8  C         1.6104966058    0.6781170809    2.1362909557
      9  O         0.2954568861    1.1922338351    1.8928408655
     10  C         0.3363376153    2.3857316865    1.1098268461
     11  C        -0.0555908454    2.0712781773   -0.3262631073
     12  O        -0.0220022243    3.2315230416   -1.1247408506
     13  C        -4.5674749469    1.2824367365    0.1220061483
     14  C        -4.3047589433    2.7173426426   -0.3091362363
     15  O        -4.1729376952    0.4067019313   -0.9242754401
     16  C        -4.5476642326   -0.9307097851   -0.6482233362
     17  C         4.6177516672    2.3614550824   -0.3748273963
     18  C         3.9969220280    1.4015952535   -1.3826428925
     19  O         4.1847909238    0.0685176423   -0.9291243109
     20  C         3.7275222655   -0.8673795136   -1.8911744337
     21  Mg       -1.6965981750   -0.5396497261    1.0178337932
     22  H        -0.6229148963   -1.2989116982   -3.3092729005
     23  H        -1.7135522132   -1.1179429920   -1.9024086042
     24  H        -1.6713631243   -2.6586584785   -2.8070739012
     25  H         0.6295900983   -1.4750888091   -1.1744683051
     26  H         0.6596829191   -3.0263700594   -2.0988241112
     27  H         1.3687705672   -3.7248422304    0.0037517343
     28  H         0.0243331063   -4.6077425919    0.7261418000
     29  H         1.2149952221   -3.2981783082    2.4082809451
     30  H        -0.4823925425   -2.7189396772    2.2315189526
     31  H         2.4944051204   -1.1850721702    2.7471336565
     32  H         0.8365228387   -0.8649506544    3.3877111029
     33  H         2.2567862481    0.7603648755    1.2455793397
     34  H         2.0705707832    1.2190891811    2.9770387536
     35  H         1.3216995618    2.8814835963    1.1338521188
     36  H        -0.3791177375    3.1061229623    1.5350972657
     37  H        -1.0700991369    1.6200637531   -0.3238087978
     38  H         0.6416965389    1.3388857149   -0.7550777422
     39  H        -0.8120964872    3.7703544093   -0.9027269670
     40  H        -5.6428523577    1.1806912345    0.3446587053
     41  H        -3.9743186486    1.0667487232    1.0406487555
     42  H        -4.8840131316    2.9561242971   -1.2125516082
     43  H        -3.2374137414    2.8409994694   -0.5233652882
     44  H        -4.5942225283    3.4119935493    0.4933412563
     45  H        -4.1769386734   -1.5735092406   -1.4519995365
     46  H        -5.6416339794   -1.0448129364   -0.6085971903
     47  H        -4.0852511035   -1.2775626457    0.2990487229
     48  H         4.4621283812    3.3994571222   -0.7052696459
     49  H         5.6977334528    2.1743446721   -0.2863208220
     50  H         4.1558205808    2.2287107128    0.6156859457
     51  H         4.4826167573    1.5656453166   -2.3598458647
     52  H         2.9180570945    1.6232923121   -1.4640434234
     53  H         3.7875976939   -1.8750873235   -1.4549200950
     54  H         4.3539916502   -0.8564968634   -2.7970825742
     55  H         2.6724508359   -0.6745053356   -2.1468043714
   Point Group: c1    Number of degrees of freedom:   159


   Energy is  -1191.417255750

 GETINT wrote B to file, NVib is          159
 Hessian Updated using BFGS Update

159 Hessian modes will be used to form the next step
  Hessian Eigenvalues:
     0.002585    0.003318    0.003528    0.004184    0.004780    0.004833
     0.005523    0.005832    0.006690    0.007568    0.008258    0.008537
     0.009892    0.011142    0.012742    0.013069    0.014783    0.015344
     0.015515    0.017416    0.018022    0.018587    0.021080    0.022802
     0.024188    0.024797    0.027239    0.027952    0.030199    0.033813
     0.035188    0.037534    0.041810    0.043362    0.044388    0.045875
     0.048212    0.050557    0.051734    0.053428    0.053837    0.054770
     0.056012    0.056835    0.057696    0.058885    0.059074    0.059678
     0.060020    0.061669    0.062521    0.064552    0.066486    0.067509
     0.069745    0.070715    0.072679    0.074832    0.076112    0.080565
     0.082205    0.083849    0.086615    0.087623    0.088585    0.089306
     0.089483    0.093784    0.094140    0.095635    0.098830    0.100810
     0.102962    0.108590    0.109782    0.110363    0.110728    0.111100
     0.113392    0.113546    0.118665    0.121496    0.122644    0.124951
     0.131382    0.133471    0.135844    0.136721    0.137656    0.140100
     0.143067    0.143431    0.146431    0.150762    0.151637    0.153520
     0.159315    0.162662    0.166657    0.179247    0.187194    0.187883
     0.189829    0.199038    0.202304    0.207215    0.227501    0.237417
     0.288064    0.290418    0.293346    0.295593    0.297503    0.298444
     0.299892    0.300770    0.313105    0.317457    0.318686    0.319034
     0.320043    0.320171    0.320502    0.320627    0.321069    0.321362
     0.321733    0.322244    0.322539    0.322844    0.323244    0.323427
     0.323635    0.323660    0.323745    0.324437    0.324532    0.325123
     0.325205    0.325277    0.325316    0.325388    0.325488    0.325547
     0.326402    0.326570    0.369889    0.404598    0.415489    0.421236
     0.423532    0.427552    0.430328    0.433527    0.436659    0.437722
     0.438273    0.447104    0.536170

 Minimum Search - Taking Simple RFO Step
 Searching for Lamda that Minimizes Along All modes
 Value Taken    Lamda =  -0.09967476
 Calculated Step too Large.  Step scaled by  0.354443
 Step Taken.  Stepsize is  0.300000

                             Maximum     Tolerance    Cnvgd?
         Gradient           0.045835      0.000300      NO
         Displacement       0.117334      0.001200      NO
         Energy change     -0.041693      0.000001      NO


 New Cartesian Coordinates Obtained by Inverse Iteration

 Displacement from previous Coordinates is:  1.109843
 ----------------------------------------------------------------
             Standard Nuclear Orientation (Angstroms)
    I     Atom           X                Y                Z
 ----------------------------------------------------------------
    1      C      -1.0687600790    -1.7168506568    -2.4188765031
    2      C       0.0255501231    -2.2550215526    -1.5116537324
    3      O      -0.6090220941    -2.9107930180    -0.3933793009
    4      C       0.3190539730    -3.5971811933     0.4659002354
    5      C       0.4866975255    -2.8164319559     1.7467796869
    6      O       0.9693855362    -1.5171692701     1.3896557599
    7      C       1.5114372726    -0.8157217528     2.5068810443
    8      C       1.5969369470     0.6329122341     2.1002167761
    9      O       0.2509432987     1.1024214648     1.8242760031
   10      C       0.2869412708     2.3123619246     1.0439222074
   11      C      -0.0724921811     1.9967720602    -0.3957281726
   12      O      -0.0315434766     3.1565298360    -1.2034291747
   13      C      -4.5195603866     1.2985282086     0.1516670158
   14      C      -4.2757454869     2.7199544987    -0.3265968349
   15      O      -4.1300049440     0.4032611280    -0.8878460299
   16      C      -4.4761196504    -0.9403220814    -0.5946845717
   17      C       4.5751691928     2.4020698310    -0.3593669132
   18      C       3.9878054529     1.4294091859    -1.3754584176
   19      O       4.1866452820     0.0981711894    -0.9020001678
   20      C       3.7571561667    -0.8657057639    -1.8564871997
   21      Mg     -1.5704582123    -0.5143012094     1.0091670843
   22      H      -0.6444660068    -1.2057764278    -3.2855771969
   23      H      -1.6981499958    -1.0183723005    -1.8668702427
   24      H      -1.6949877283    -2.5409549749    -2.7669196646
   25      H       0.6504290034    -1.4314082332    -1.1663321748
   26      H       0.6243966398    -2.9627702282    -2.0900837557
   27      H       1.2924460209    -3.7522703028    -0.0088145876
   28      H      -0.0780389519    -4.5872299474     0.6984018338
   29      H       1.1661331718    -3.3495614432     2.4176036511
   30      H      -0.4971901025    -2.7227071405     2.2366836639
   31      H       2.4951100277    -1.2064908873     2.7755097607
   32      H       0.8396651254    -0.8802148120     3.3723496853
   33      H       2.2448212168     0.7267242230     1.2236672230
   34      H       2.0232381429     1.2013967793     2.9292279119
   35      H       1.2597777637     2.8083404041     1.0947364316
   36      H      -0.4401000643     3.0155692131     1.4581730270
   37      H      -1.0844064833     1.5462844210    -0.3799502018
   38      H       0.6311653518     1.2779324674    -0.8132896297
   39      H      -0.8020869149     3.7119973558    -0.9929023148
   40      H      -5.5775199029     1.1801239431     0.4038230036
   41      H      -3.9067967463     1.1028597843     1.0610742347
   42      H      -4.8676779036     2.9328428707    -1.2181089263
   43      H      -3.2211381267     2.8203887867    -0.5626581034
   44      H      -4.5455840586     3.4328952128     0.4560942487
   45      H      -4.1221926768    -1.5699547804    -1.4001158339
   46      H      -5.5568793492    -1.0728267770    -0.5084961558
   47      H      -3.9784151498    -1.2644685336     0.3416962181
   48      H       4.4064756254     3.4296135858    -0.6919021829
   49      H       5.6489048573     2.2377349600    -0.2505538216
   50      H       4.1045729875     2.2576774427     0.6175278025
   51      H       4.4778844570     1.5901502674    -2.3415101299
   52      H       2.9118887711     1.6236455635    -1.4829840817
   53      H       3.8219628274    -1.8552454935    -1.3996277602
   54      H       4.3845756074    -0.8635707658    -2.7520797243
   55      H       2.7125813492    -0.6718813990    -2.1242844100
 ----------------------------------------------------------------
 Molecular Point Group                 C1    NOp =  1
 Largest Abelian Subgroup              C1    NOp =  1
 Nuclear Repulsion Energy =  2050.3480470371 hartrees
 There are       88 alpha and       88 beta electrons
 Applying Cartesian multipole field
    Component          Value
    ---------          -----
     (2,0,0)        1.00000E-12
     (0,2,0)        2.00000E-11
     (0,0,2)       -3.00000E-11
 Nucleus-field energy     =     0.0000000171 hartrees
 Requested basis set is 3-21G
 There are 132 shells and 261 basis functions
 A cutoff of  1.0D-11 yielded   5111 shell pairs
 There are     22037 function pairs
         cpu   0.02 wall   0.02
 Smallest overlap matrix eigenvalue = 1.20E-02
 Guess MOs from SCF MO coefficient file
Reading MOs from coefficient file
GuessMan calls MO2Den with 88 electrons (IDen = 0)
Reading MOs from coefficient file
GuessMan calls MO2Den with 88 electrons (IDen = 1)
 A restricted Hartree-Fock SCF calculation will be
 performed using Pulay DIIS extrapolation
 SCF converges when DIIS error is below 1.0E-08
Geometry optimization detected.  Setting ReadMinima to 0
Setting SaveMinima to 0
 ---------------------------------------
  Cycle       Energy         DIIS Error
 ---------------------------------------
    1   -1191.6020801532      1.50E-03
    2   -1191.4502856115      2.41E-04
    3   -1191.4511505867      1.06E-04
    4   -1191.4512706424      4.48E-05
    5   -1191.4512999611      9.91E-06
    6   -1191.4513022578      3.81E-06
    7   -1191.4513026398      1.05E-06
    8   -1191.4513026726      3.24E-07
    9   -1191.4513026736      1.25E-07
   10   -1191.4513026715      3.67E-08
   11   -1191.4513026695      1.14E-08
   12   -1191.4513026680      3.72E-09 Convergence criterion met
 ---------------------------------------
 SCF time:  CPU 20.56 s  wall 20.58 s
 SCF   energy in the final basis set = -1191.4513026680
 Total energy in the final basis set = -1191.4513026680
 Analysis of SCF Wavefunction
 
 --------------------------------------------------------------
 
                    Orbital Energies (a.u.)
 --------------------------------------------------------------
 
 Alpha MOs
 -- Occupied --
-49.192 -20.780 -20.760 -20.737 -20.722 -20.698 -20.621 -11.503
-11.500 -11.492 -11.491 -11.490 -11.484 -11.481 -11.477 -11.467
-11.399 -11.388 -11.387 -11.384 -11.319  -4.233  -2.748  -2.746
 -2.745  -1.683  -1.663  -1.639  -1.632  -1.605  -1.537  -1.331
 -1.295  -1.276  -1.260  -1.229  -1.192  -1.174  -1.122  -1.109
 -1.100  -1.087  -1.079  -1.078  -0.997  -0.977  -0.971  -0.964
 -0.943  -0.937  -0.929  -0.917  -0.903  -0.900  -0.893  -0.881
 -0.868  -0.856  -0.847  -0.844  -0.841  -0.825  -0.820  -0.812
 -0.796  -0.792  -0.778  -0.772  -0.765  -0.762  -0.757  -0.754
 -0.750  -0.746  -0.744  -0.742  -0.726  -0.718  -0.715  -0.710
 -0.696  -0.681  -0.678  -0.676  -0.671  -0.666  -0.629  -0.583
 -- Virtual --
 -0.336  -0.215  -0.178  -0.136  -0.047  -0.038  -0.016  -0.009
  0.010   0.021   0.024   0.031   0.045   0.059   0.067   0.071
  0.074   0.083   0.084   0.090   0.098   0.098   0.104   0.109
  0.114   0.116   0.119   0.121   0.126   0.132   0.141   0.146
  0.151   0.153   0.160   0.163   0.165   0.172   0.173   0.178
  0.181   0.184   0.193   0.197   0.204   0.209   0.215   0.220
  0.221   0.224   0.234   0.245   0.250   0.254   0.263   0.279
  0.290   0.317   0.323   0.649   0.664   0.679   0.686   0.692
  0.698   0.699   0.701   0.722   0.725   0.732   0.733   0.741
  0.742   0.747   0.753   0.766   0.778   0.779   0.783   0.789
  0.796   0.800   0.808   0.822   0.823   0.825   0.836   0.841
  0.861   0.874   0.884   0.891   0.895   0.905   0.931   0.937
  0.944   0.963   0.982   1.003   1.024   1.031   1.040   1.053
  1.056   1.066   1.077   1.090   1.095   1.099   1.104   1.118
  1.125   1.135   1.143   1.147   1.150   1.158   1.162   1.170
  1.180   1.181   1.184   1.194   1.198   1.207   1.212   1.225
  1.236   1.257   1.268   1.278   1.302   1.309   1.366   1.556
  1.589   1.625   1.637   1.670   1.687   1.707   1.719   1.745
  1.771   1.793   1.813   1.824   1.835   1.863   1.867   1.887
  1.892   1.905   1.945   1.963   2.021   2.054   2.090   2.102
  2.150   2.154   2.178   2.183   2.224   2.240   2.297   3.166
  3.223   3.236   3.247   3.270   3.332
 --------------------------------------------------------------
 
          Ground-State Mulliken Net Atomic Charges

     Atom                 Charge (a.u.)
  ----------------------------------------
      1 C                    -0.622123
      2 C                    -0.147770
      3 O                    -0.667285
      4 C                    -0.102540
      5 C                    -0.136850
      6 O                    -0.675361
      7 C                    -0.133033
      8 C                    -0.137492
      9 O                    -0.700557
     10 C                    -0.159289
     11 C                    -0.090891
     12 O                    -0.623737
     13 C                    -0.090526
     14 C                    -0.601768
     15 O                    -0.633812
     16 C                    -0.266101
     17 C                    -0.605577
     18 C                    -0.080416
     19 O                    -0.653976
     20 C                    -0.250885
     21 Mg                    1.411626
     22 H                     0.274968
     23 H                     0.146080
     24 H                     0.276698
     25 H                     0.223368
     26 H                     0.275464
     27 H                     0.272759
     28 H                     0.281363
     29 H                     0.291747
     30 H                     0.162634
     31 H                     0.297607
     32 H                     0.232252
     33 H                     0.294960
     34 H                     0.286395
     35 H                     0.304882
     36 H                     0.260168
     37 H                     0.087501
     38 H                     0.277154
     39 H                     0.410566
     40 H                     0.279434
     41 H                     0.080685
     42 H                     0.288825
     43 H                     0.183760
     44 H                     0.248206
     45 H                     0.283941
     46 H                     0.293608
     47 H                     0.048231
     48 H                     0.222124
     49 H                     0.256254
     50 H                     0.169176
     51 H                     0.226943
     52 H                     0.157483
     53 H                     0.206991
     54 H                     0.227190
     55 H                     0.138946
  ----------------------------------------
  Sum of atomic charges =     2.000000

 -----------------------------------------------------------------
                    Cartesian Multipole Moments
 -----------------------------------------------------------------
    Charge (ESU x 10^10)
                 9.6064
    Dipole Moment (Debye)
         X     -10.1099      Y      -3.9067      Z       8.2061
       Tot      13.5945
    Quadrupole Moments (Debye-Ang)
        XX     -68.3903     XY      -4.6220     YY     -87.2695
        XZ      -8.3643     YZ      -0.8911     ZZ    -104.3629
    Octopole Moments (Debye-Ang^2)
       XXX    -220.1534    XXY      36.0885    XYY     -11.7947
       YYY     -26.2194    XXZ       7.8741    XYZ      -2.4037
       YYZ      28.9979    XZZ      31.9286    YZZ     -46.8064
       ZZZ      34.2720
    Hexadecapole Moments (Debye-Ang^3)
      XXXX   -4996.3252   XXXY      15.8295   XXYY   -1301.7684
      XYYY    -219.7030   YYYY   -2735.0878   XXXZ    -102.7344
      XXYZ      13.9227   XYYZ      41.2461   YYYZ      -5.4478
      XXZZ   -1171.5716   XYZZ      -3.2146   YYZZ    -747.8101
      XZZZ      37.9334   YZZZ      54.7024   ZZZZ   -1560.7662
 -----------------------------------------------------------------
 Calculating analytic gradient of the SCF energy
         cpu   0.07 wall   0.07
 Gradient of Coulomb and Exchange Energy
            1           2           3           4           5           6
    1  -4.5859591   7.4135702   7.4656211   1.6844578  -3.5861975  -6.7009340
    2   4.4959530   5.3900885  12.8863668   1.6494377   6.0197588   5.2725208
    3   4.6659424   5.4617909   4.3452459  -3.6243340  -0.8013170  -3.4470794
            7           8           9          10          11          12
    1  -3.4648702   2.4269419   1.7533566   1.2199274   0.5069762  -5.4317299
    2  -0.0163313   0.3280803  -7.9078190   3.4162082 -12.9810831 -10.5853043
    3  -2.3927513  -7.8139836 -12.3352897   2.5842082  -4.3405890  11.8659619
           13          14          15          16          17          18
    1   4.0383007   7.1162185   6.5485581   6.7769136  -3.9397321  -7.7777993
    2  -4.0399216  -1.2989371  -1.8507452  -0.8748442  -2.9107588  -2.6628971
    3   2.0120529  -2.6072304   8.1514044  -1.7949573   4.3514964  -0.3050897
           19          20          21          22          23          24
    1 -11.3217968  -6.1200022  13.4702356  -2.0816509   3.2911066   3.3161738
    2   2.8352077  -1.1360997   2.0583474  -2.3142781  -2.6697089   4.7597557
    3  -2.3619843   4.5983698  -7.9396753   5.5596058  -0.8480875   2.6571707
           25          26          27          28          29          30
    1  -3.3801374  -3.2487171  -6.0919583   1.5938322  -3.9093350   4.4724175
    2  -4.3383566   4.2929274   2.6854771   6.4909639   4.3966281   1.4926192
    3   0.0034903   4.8291565   2.1687764  -1.6325939  -4.0821818  -3.0803342
           31          32          33          34          35          36
    1  -6.5424438   2.4514184  -5.2567853  -3.4001949  -5.8688651   4.0527110
    2   2.2002121  -0.0438323  -0.6072253  -3.0221555  -4.5980752  -5.2771908
    3  -2.5371809  -6.0722552   4.1123004  -5.6494198  -0.2983882  -2.6196792
           37          38          39          40          41          42
    1   3.3553882  -4.4519214   5.5410264   6.0926651  -0.2301324   3.5310636
    2  -0.0484256   3.9668264  -3.8290190  -0.4010658  -0.9220803  -1.7726575
    3   0.4886965   3.0482885  -1.4811162  -1.3674325  -3.7152408   4.5086931
           43          44          45          46          47          48
    1  -4.0284165   1.7781799  -0.9632194   6.2816849   0.6184368   0.0453682
    2  -1.1835243  -3.7420775   4.3892775   1.3677537   2.5142184  -4.9420967
    3   1.1137304  -3.4464513   4.6859212   0.1478935  -2.5440268   1.5336569
           49          50          51          52          53          54
    1  -5.6519879   1.0511054  -2.9571021   3.6954989  -0.9758050  -3.3587109
    2   0.2256984  -0.1337323  -1.7227307  -2.0234015   5.9548343   0.8253913
    3  -0.4577050  -4.4995012   4.7609750   0.9770335  -1.4357104   4.7046236
           55
    1   3.7372496
    2  -0.0581778
    3   2.1951003
 Gradient of SCF Energy
            1           2           3           4           5           6
    1   0.0054985  -0.0078804   0.0065583  -0.0051698   0.0020081   0.0319375
    2   0.0052112  -0.0096095  -0.0253517   0.0301027   0.0249564  -0.0066895
    3   0.0042079   0.0286436  -0.0176941  -0.0099931   0.0017232   0.0027269
            7           8           9          10          11          12
    1  -0.0095055  -0.0309131   0.0252867   0.0092320  -0.0086871   0.0113434
    2  -0.0168137   0.0100468   0.0241371  -0.0399978   0.0114915   0.0012434
    3  -0.0200450  -0.0119665   0.0168780  -0.0002707   0.0022467  -0.0063191
           13          14          15          16          17          18
    1   0.0160991  -0.0023996  -0.0142166   0.0087765  -0.0030538  -0.0019906
    2  -0.0179147  -0.0059437   0.0041535   0.0136840  -0.0042984  -0.0177738
    3  -0.0025511  -0.0027704  -0.0067069   0.0165196  -0.0050645   0.0037897
           19          20          21          22          23          24
    1   0.0028627   0.0015686  -0.0490118   0.0034979   0.0018790  -0.0029648
    2   0.0008001   0.0166207   0.0006249   0.0018600  -0.0032773  -0.0068972
    3  -0.0063199   0.0034717   0.0129195  -0.0067578   0.0035365  -0.0019653
           25          26          27          28          29          30
    1  -0.0011814   0.0018486   0.0089288   0.0005472   0.0052173  -0.0060216
    2   0.0104468  -0.0037660  -0.0072827  -0.0080050  -0.0074525   0.0011700
    3  -0.0006953  -0.0102300  -0.0011636   0.0034995   0.0038284  -0.0026347
           31          32          33          34          35          36
    1   0.0080227  -0.0052440   0.0091054   0.0060659   0.0065988  -0.0047065
    2  -0.0027646   0.0046770   0.0007224  -0.0004875   0.0090344   0.0066481
    3   0.0026218   0.0053142  -0.0045338   0.0081790   0.0004719   0.0000005
           37          38          39          40          41          42
    1   0.0003830   0.0056684  -0.0067362  -0.0097889   0.0024305  -0.0047987
    2   0.0052905  -0.0050791  -0.0051452   0.0043518   0.0028046   0.0031804
    3   0.0019543  -0.0017143   0.0075133  -0.0021829   0.0007147  -0.0058568
           43          44          45          46          47          48
    1   0.0021008  -0.0022436   0.0001436  -0.0087635  -0.0001372  -0.0016225
    2  -0.0051666   0.0039374  -0.0023154   0.0004963   0.0023999   0.0060987
    3   0.0028345   0.0057617  -0.0020765  -0.0074005  -0.0055908  -0.0034003
           49          50          51          52          53          54
    1   0.0076473  -0.0039836   0.0063868  -0.0066711  -0.0009854   0.0068035
    2  -0.0004918  -0.0018935   0.0040394   0.0012854  -0.0076825  -0.0024288
    3   0.0005509   0.0053315  -0.0052202   0.0044404   0.0014900  -0.0046826
           55
    1  -0.0057695
    2   0.0030134
    3   0.0046370
 Max gradient component =       4.901E-02
 RMS gradient           =       1.032E-02
 Gradient time:  CPU 9.22 s  wall 9.22 s
 Geometry Optimization Parameters
   NAtoms,    NIC,     NZ,  NCons,   NDum,   NFix, NCnnct, MaxDiis
       55     417       0       0       0       0       0       0

 Cartesian Hessian Update
 Hessian Updated using BFGS Update


** GEOMETRY OPTIMIZATION IN DELOCALIZED INTERNAL COORDINATES **
   Searching for a Minimum

   Optimization Cycle:   3

                       Coordinates (Angstroms)
     ATOM                X               Y               Z
      1  C        -1.0687600790   -1.7168506568   -2.4188765031
      2  C         0.0255501231   -2.2550215526   -1.5116537324
      3  O        -0.6090220941   -2.9107930180   -0.3933793009
      4  C         0.3190539730   -3.5971811933    0.4659002354
      5  C         0.4866975255   -2.8164319559    1.7467796869
      6  O         0.9693855362   -1.5171692701    1.3896557599
      7  C         1.5114372726   -0.8157217528    2.5068810443
      8  C         1.5969369470    0.6329122341    2.1002167761
      9  O         0.2509432987    1.1024214648    1.8242760031
     10  C         0.2869412708    2.3123619246    1.0439222074
     11  C        -0.0724921811    1.9967720602   -0.3957281726
     12  O        -0.0315434766    3.1565298360   -1.2034291747
     13  C        -4.5195603866    1.2985282086    0.1516670158
     14  C        -4.2757454869    2.7199544987   -0.3265968349
     15  O        -4.1300049440    0.4032611280   -0.8878460299
     16  C        -4.4761196504   -0.9403220814   -0.5946845717
     17  C         4.5751691928    2.4020698310   -0.3593669132
     18  C         3.9878054529    1.4294091859   -1.3754584176
     19  O         4.1866452820    0.0981711894   -0.9020001678
     20  C         3.7571561667   -0.8657057639   -1.8564871997
     21  Mg       -1.5704582123   -0.5143012094    1.0091670843
     22  H        -0.6444660068   -1.2057764278   -3.2855771969
     23  H        -1.6981499958   -1.0183723005   -1.8668702427
     24  H        -1.6949877283   -2.5409549749   -2.7669196646
     25  H         0.6504290034   -1.4314082332   -1.1663321748
     26  H         0.6243966398   -2.9627702282   -2.0900837557
     27  H         1.2924460209   -3.7522703028   -0.0088145876
     28  H        -0.0780389519   -4.5872299474    0.6984018338
     29  H         1.1661331718   -3.3495614432    2.4176036511
     30  H        -0.4971901025   -2.7227071405    2.2366836639
     31  H         2.4951100277   -1.2064908873    2.7755097607
     32  H         0.8396651254   -0.8802148120    3.3723496853
     33  H         2.2448212168    0.7267242230    1.2236672230
     34  H         2.0232381429    1.2013967793    2.9292279119
     35  H         1.2597777637    2.8083404041    1.0947364316
     36  H        -0.4401000643    3.0155692131    1.4581730270
     37  H        -1.0844064833    1.5462844210   -0.3799502018
     38  H         0.6311653518    1.2779324674   -0.8132896297
     39  H        -0.8020869149    3.7119973558   -0.9929023148
     40  H        -5.5775199029    1.1801239431    0.4038230036
     41  H        -3.9067967463    1.1028597843    1.0610742347
     42  H        -4.8676779036    2.9328428707   -1.2181089263
     43  H        -3.2211381267    2.8203887867   -0.5626581034
     44  H        -4.5455840586    3.4328952128    0.4560942487
     45  H        -4.1221926768   -1.5699547804   -1.4001158339
     46  H        -5.5568793492   -1.0728267770   -0.5084961558
     47  H        -3.9784151498   -1.2644685336    0.3416962181
     48  H         4.4064756254    3.4296135858   -0.6919021829
     49  H         5.6489048573    2.2377349600   -0.2505538216
     50  H         4.1045729875    2.2576774427    0.6175278025
     51  H         4.4778844570    1.5901502674   -2.3415101299
     52  H         2.9118887711    1.6236455635   -1.4829840817
     53  H         3.8219628274   -1.8552454935   -1.3996277602
     54  H         4.3845756074   -0.8635707658   -2.7520797243
     55  H         2.7125813492   -0.6718813990   -2.1242844100
   Point Group: c1    Number of degrees of freedom:   159


   Energy is  -1191.451302668

 GETINT wrote B to file, NVib is          159
 Hessian Updated using BFGS Update

159 Hessian modes will be used to form the next step
  Hessian Eigenvalues:
     0.002586    0.003151    0.003351    0.003698    0.004459    0.004828
     0.005438    0.005667    0.006523    0.007408    0.007764    0.008377
     0.009825    0.011127    0.012250    0.013002    0.014571    0.015140
     0.015484    0.016735    0.017607    0.018557    0.019818    0.022850
     0.023732    0.024557    0.027369    0.027944    0.030320    0.033461
     0.035448    0.037599    0.040428    0.042526    0.044264    0.045947
     0.048044    0.050542    0.051855    0.053431    0.054091    0.054753
     0.055627    0.057084    0.057694    0.058682    0.059174    0.059546
     0.060008    0.061861    0.062277    0.064579    0.065254    0.067245
     0.069779    0.070738    0.072472    0.074862    0.076118    0.079284
     0.082334    0.083824    0.086782    0.087536    0.087869    0.089157
     0.089490    0.093145    0.094138    0.095569    0.098750    0.101187
     0.102438    0.108015    0.109094    0.110559    0.110761    0.110966
     0.112819    0.113445    0.114941    0.121577    0.122664    0.124043
     0.128312    0.133548    0.135779    0.136433    0.137649    0.140762
     0.143301    0.143797    0.146191    0.151137    0.151633    0.155064
[...]
     22 H                     0.298439
     23 H                     0.207687
     24 H                     0.257555
     25 H                     0.261282
     26 H                     0.272552
     27 H                     0.270246
     28 H                     0.284405
     29 H                     0.285948
     30 H                     0.282296
     31 H                     0.280314
     32 H                     0.281998
     33 H                     0.325637
     34 H                     0.276706
     35 H                     0.291832
     36 H                     0.245375
     37 H                     0.155160
     38 H                     0.307065
     39 H                     0.402940
     40 H                     0.280266
     41 H                     0.256684
     42 H                     0.252807
     43 H                     0.207923
     44 H                     0.274083
     45 H                     0.248968
     46 H                     0.268840
     47 H                     0.260718
     48 H                     0.252849
     49 H                     0.227503
     50 H                     0.192608
     51 H                     0.234129
     52 H                     0.238132
     53 H                     0.176801
     54 H                     0.235643
     55 H                     0.209963
  ----------------------------------------
  Sum of atomic charges =     2.000000

 -----------------------------------------------------------------
                    Cartesian Multipole Moments
 -----------------------------------------------------------------
    Charge (ESU x 10^10)
                 9.6064
    Dipole Moment (Debye)
         X      -4.3496      Y      -6.0072      Z       2.9618
       Tot       7.9861
    Quadrupole Moments (Debye-Ang)
        XX     -64.1275     XY      -2.9320     YY     -80.5311
        XZ      -0.1775     YZ       5.1081     ZZ     -97.9728
    Octopole Moments (Debye-Ang^2)
       XXX     -70.0990    XXY      22.1462    XYY     -28.5777
       YYY     -85.8469    XXZ      -0.4024    XYZ      -4.0416
       YYZ      20.4054    XZZ       5.5828    YZZ     -48.5353
       ZZZ      36.4979
    Hexadecapole Moments (Debye-Ang^3)
      XXXX   -3217.8900   XXXY    -166.6531   XXYY    -995.9821
      XYYY    -376.3738   YYYY   -2522.0245   XXXZ     -58.2507
      XXYZ      10.8602   XYYZ      86.2692   YYYZ      56.1046
      XXZZ    -896.9883   XYZZ    -107.5053   YYZZ    -705.5138
      XZZZ     196.1549   YZZZ     125.7102   ZZZZ   -1527.7757
 -----------------------------------------------------------------
 Calculating analytic gradient of the SCF energy
         cpu   0.09 wall   0.09
 Gradient of Coulomb and Exchange Energy
            1           2           3           4           5           6
    1  -1.7162208   6.0420561   1.0399999   1.4701995  -3.0698053  -2.3944424
    2   7.6162264   1.2562401  12.8621550   6.2258992   5.9464617   8.6266980
    3   7.3232007   5.3961992   7.7631442  -3.8604628   0.5209493 -14.3132459
            7           8           9          10          11          12
    1  -4.4176313   1.9788550  -1.7849078   0.8432690   2.0401973  -5.7410970
    2  -1.3267405   0.7748925 -10.9779047   0.1405673 -13.0564135 -12.8127216
    3  -3.1573183  -9.7425137  -7.2483496   4.2931926  -2.4555942  10.3864163
           13          14          15          16          17          18
    1   8.9439583   7.1996199  14.7155365   6.8718074  -7.2584585  -7.5437104
    2  -3.5138941  -2.8962494   0.6051454   0.0096568  -2.9507887  -2.4573060
    3   6.0446740  -5.5789719  -3.5726239  -2.0700677   4.3971785  -3.7869144
           19          20          21          22          23          24
    1  -8.5366551  -8.2608090   6.2349384  -0.5877550   0.4658304   5.6906068
    2  -0.4540450  -0.6336006   1.1752489   0.3486238  -5.4029512   2.5515089
    3   2.9398846   4.0474056   0.8820769   6.3857825   0.4456564   0.5667242
           25          26          27          28          29          30
    1  -5.8683389   1.0838872  -6.6962120   2.0621250  -5.3935558   5.5139410
    2  -0.6923932   6.7225774   1.4580730   7.0005449   3.7390849   3.9545704
    3   3.3407180   2.4395630   1.6600551   0.8334660  -3.8222114  -3.1743416
           31          32          33          34          35          36
    1  -5.9062578   3.8457850  -6.2953355  -1.9109085  -6.1507127   4.7061871
    2   2.7944511  -1.5647104   1.0270761  -5.3661046  -4.3765436  -5.1985392
    3  -3.9140876  -6.4310080   2.2618109  -5.4550968  -1.3094262  -2.8138980
           37          38          39          40          41          42
    1   4.0952855  -5.1844471   6.0942872   6.0615003  -3.1912244   4.5400136
    2   1.9488198   2.0150694  -3.3692620   0.2164045  -3.6283367   1.6879415
    3   2.5879530   3.0616565   0.2088098  -3.9625405  -5.0827821   3.6917474
           43          44          45          46          47          48
    1  -3.2937660   3.0318332   0.5280342   6.9242204   1.0734856  -3.2116419
    2  -2.3225031  -5.0074263   3.0805069  -1.6109624   5.2909635  -4.3774104
    3   3.5197965  -1.6562380   5.7412334   0.4047013  -4.2188402   1.1607154
           49          50          51          52          53          54
    1  -4.0033323   2.7202440  -5.3146351   1.8370111   1.6884660  -5.9552972
    2   2.5737931  -2.4414366   1.1691736  -4.1286539   4.9032111   2.2117075
    3  -3.0381606  -3.1175961   3.0645682   4.2078386  -1.9775022   0.1784252
           55
    1   0.3439768
    2   0.6336050
    3   6.0042486
 Gradient of SCF Energy
            1           2           3           4           5           6
    1  -0.0003841   0.0010011  -0.0012625   0.0009173   0.0004597  -0.0007981
    2   0.0000156   0.0000169  -0.0009550  -0.0013027  -0.0011679   0.0014442
    3  -0.0001484  -0.0011656   0.0005464   0.0022179  -0.0001036  -0.0003568
            7           8           9          10          11          12
    1   0.0010558   0.0006667  -0.0020887   0.0000797   0.0005648  -0.0009291
    2   0.0012037  -0.0001732  -0.0010419  -0.0005311   0.0009378   0.0005782
    3   0.0004781   0.0007652  -0.0003055   0.0006942   0.0003764  -0.0006574
           13          14          15          16          17          18
    1   0.0000348   0.0008848  -0.0005859  -0.0015585  -0.0002630   0.0006564
    2  -0.0013405   0.0004667  -0.0014816  -0.0013681  -0.0001480   0.0008691
    3  -0.0000079   0.0011168   0.0008616   0.0009005   0.0004788   0.0007416
           19          20          21          22          23          24
    1  -0.0005941  -0.0000547  -0.0000478  -0.0005233  -0.0002512  -0.0002520
    2   0.0012785  -0.0004435   0.0004887   0.0004076   0.0011099  -0.0017219
    3  -0.0022793   0.0016323   0.0003732   0.0000249   0.0007975  -0.0009608
           25          26          27          28          29          30
    1   0.0011266   0.0000976  -0.0004269  -0.0010481   0.0009346  -0.0002458
    2  -0.0002208   0.0004244  -0.0007057   0.0017788   0.0001024  -0.0005125
    3  -0.0000675   0.0010459  -0.0004517   0.0001092  -0.0003789  -0.0024635
           31          32          33          34          35          36
    1   0.0000033  -0.0001621   0.0002433  -0.0002622   0.0008157   0.0011300
    2  -0.0000229  -0.0006804   0.0000936   0.0010840  -0.0002508  -0.0000085
    3   0.0004815   0.0002787  -0.0006468   0.0005663  -0.0011907  -0.0004190
           37          38          39          40          41          42
    1   0.0002904  -0.0005787  -0.0001256  -0.0006928  -0.0007783   0.0015280
    2  -0.0013789   0.0024581  -0.0003354   0.0018871  -0.0002877  -0.0012374
    3   0.0002190   0.0000287   0.0003007  -0.0010488  -0.0002175   0.0018346
           43          44          45          46          47          48
    1   0.0015323  -0.0007616  -0.0004166   0.0021711   0.0018595  -0.0014304
    2  -0.0000264   0.0007954   0.0018209   0.0000357   0.0008861  -0.0008036
    3  -0.0013078  -0.0005880   0.0024623  -0.0018163  -0.0025435  -0.0000322
           49          50          51          52          53          54
    1  -0.0004448   0.0008067  -0.0009055  -0.0000444  -0.0007852   0.0002350
    2   0.0002284  -0.0013521   0.0002884  -0.0018913   0.0002641  -0.0001058
    3  -0.0005637  -0.0002649   0.0007373  -0.0002890   0.0005495  -0.0010324
           55
    1  -0.0003935
    2   0.0005314
    3   0.0006882
 Max gradient component =       2.543E-03
 RMS gradient           =       9.624E-04
 Gradient time:  CPU 13.11 s  wall 13.15 s
 Geometry Optimization Parameters
   NAtoms,    NIC,     NZ,  NCons,   NDum,   NFix, NCnnct, MaxDiis
       55     417       0       0       0       0       0       0

 Cartesian Hessian Update
 Hessian Updated using BFGS Update


** GEOMETRY OPTIMIZATION IN CARTESIAN COORDINATES **
   Searching for a Minimum

   Optimization Cycle:  50

                       Coordinates (Angstroms)
     ATOM                X               Y               Z
      1  C        -1.3746958313   -1.5477008703   -2.7976883487
      2  C        -0.3307001710   -2.4024018623   -2.0884601334
      3  O        -0.4255201410   -2.1806129635   -0.6167218617
      4  C         0.3340397800   -3.1842116340    0.1554592696
      5  C         0.1970765949   -2.8620083048    1.6503220485
      6  O         0.1155223082   -1.4117640849    1.7369194622
      7  C         0.8117544837   -0.5600235297    2.7008281234
      8  C         1.2446302437    0.6719042663    1.9009751101
      9  O         0.1305571967    1.0235046231    0.9819159917
     10  C         0.2267299797    2.3728253469    0.3807306502
     11  C         0.1334607185    2.2357327661   -1.1375081632
     12  O         0.1391568594    3.5287229355   -1.7336563909
     13  C        -3.3126841991    1.0694476223    1.0875139938
     14  C        -3.6404737327    1.9801667018   -0.0866408044
     15  O        -2.7694082888   -0.2224025549    0.5790087634
     16  C        -3.7783836001   -1.2511633484    0.2554675430
     17  C         4.2669149803    2.3743353930    0.0494147079
     18  C         3.8041239441    1.6585207398   -1.2113135610
     19  O         2.9026734058    0.5645470715   -0.8256334603
     20  C         3.1844646431   -0.7029857311   -1.4506401099
     21  Mg       -0.8821397970   -0.5269627662    0.3625696917
     22  H        -1.1912007786   -1.5642817864   -3.8649440068
     23  H        -1.3249029381   -0.5075649388   -2.4847433927
     24  H        -2.3699788612   -1.9373270294   -2.6324505662
     25  H         0.6763933480   -2.1484288084   -2.3825976183
     26  H        -0.5071724405   -3.4517828907   -2.2602139638
     27  H         1.3611843010   -3.1413098585   -0.1667182841
     28  H        -0.0811753078   -4.1547132113   -0.0591170664
     29  H         1.0529666086   -3.2271865753    2.1981606444
     30  H        -0.7122095572   -3.2775538006    2.0527947790
     31  H         1.6703493245   -1.0756334554    3.1045524205
     32  H         0.1188933564   -0.3195261561    3.4909047294
     33  H         2.0990421864    0.4863579774    1.2721831122
     34  H         1.4164672171    1.5070877626    2.5638315071
     35  H         1.1820141154    2.8002397316    0.6299063133
     36  H        -0.5625826449    2.9773037987    0.7955738552
     37  H        -0.7415367942    1.6460005685   -1.4119726160
     38  H         1.0149000993    1.7293694368   -1.4783879881
     39  H        -0.7213223619    3.9678923757   -1.7051192150
     40  H        -4.1920743333    0.8509174455    1.6717940280
     41  H        -2.5512705115    1.4741967897    1.7330474672
     42  H        -4.3404169558    1.4887296520   -0.7477583692
     43  H        -2.7545535951    2.2327158465   -0.6573927194
     44  H        -4.0997295869    2.8968766253    0.2646675267
     45  H        -3.5520953900   -1.6442585509   -0.7159749748
     46  H        -4.7520651613   -0.7962479094    0.2310807620
     47  H        -3.7263659296   -2.0242719145    1.0001804465
     48  H         4.8383772589    3.2535955767   -0.2113168023
     49  H         4.8854661533    1.7204151407    0.6491185665
     50  H         3.4197361344    2.6880725595    0.6418064228
     51  H         4.6519733683    1.2508414591   -1.7418654685
     52  H         3.2627129902    2.3115989052   -1.8779978220
     53  H         2.5889728373   -1.4414633271   -0.9338199236
     54  H         4.2305669896   -0.9669509754   -1.3646060205
     55  H         2.9139517973   -0.6878143393   -2.4990016930
   Point Group: c1    Number of degrees of freedom:   159


   Energy is  -1191.756380098


 Translations and Rotations Projected Out of Hessian

113 Hessian modes will be used to form the next step
  Hessian Eigenvalues:
     0.001515    0.004167    0.005921    0.009289    0.009861    0.016425
     0.023072    0.025547    0.030712    0.037094    0.043126    0.047218
     0.061546    0.067791    0.079751    0.108548    0.121817    0.148891
     0.171180    0.204965    0.245121    0.280740    0.333206    0.420582
     0.460721    0.498812    0.598110    0.627965    0.662763    0.765260
     0.863638    0.932676    0.965255    0.993317    0.999533    0.999986
     0.999995    0.999999    1.000000    1.000000    1.000000    1.000000
     1.000000    1.000000    1.000000    1.000000    1.000000    1.000000
     1.000000    1.000000    1.000000    1.000000    1.000000    1.000000
     1.000000    1.000000    1.000000    1.000000    1.000000    1.000000
     1.000000    1.000000    1.000000    1.000000    1.000000    1.000000
     1.000000    1.000000    1.000003    1.000015    1.000051    1.000092
     1.000115    1.000186    1.000248    1.000415    1.000610    1.000687
     1.000871    1.001072    1.001172    1.001929    1.002133    1.002589
     1.004087    1.004311    1.005129    1.006062    1.006730    1.008420
     1.010730    1.012739    1.015328    1.018804    1.022868    1.029538
     1.038157    1.050787    1.065144    1.069669    1.078026    1.102419
     1.109384    1.132139    1.144466    1.149057    1.227751    1.343980
     1.360027    1.458314    1.678232    1.997105    3.430993

 Minimum Search - Taking Simple RFO Step
 Searching for Lamda that Minimizes Along All modes
 Value Taken    Lamda =  -0.00044700
 Step Taken.  Stepsize is  0.261430

                             Maximum     Tolerance    Cnvgd?
         Gradient           0.002543      0.000300      NO
         Displacement       0.063694      0.001200      NO
         Energy change     -0.000380      0.000001      NO

 ----------------------------------------------------------------
             Standard Nuclear Orientation (Angstroms)
    I     Atom           X                Y                Z
 ----------------------------------------------------------------
    1      C      -1.3629305341    -1.5483554182    -2.7900060807
    2      C      -0.3256771471    -2.4153399298    -2.0900369748
    3      O      -0.4053466044    -2.1828936342    -0.6182426462
    4      C       0.3568662060    -3.1843216806     0.1533033544
    5      C       0.2130393336    -2.8690468278     1.6491699185
    6      O       0.1017459167    -1.4211968822     1.7503373300
    7      C       0.8119608197    -0.5674655085     2.7021429151
    8      C       1.2417443956     0.6632686790     1.8999385475
    9      O       0.1257429168     1.0133830542     0.9829570629
   10      C       0.2192257784     2.3641765388     0.3826308047
   11      C       0.1263677195     2.2312641027    -1.1374000822
   12      O       0.1534814022     3.5283475063    -1.7291150813
   13      C      -3.3106644987     1.0807099892     1.0887277037
   14      C      -3.6467111185     1.9938907496    -0.0838223886
   15      O      -2.7730144438    -0.2119563172     0.5692094474
   16      C      -3.7888155890    -1.2353292928     0.2460952255
   17      C       4.2534369366     2.3754315341     0.0452264814
   18      C       3.7942483995     1.6638106739    -1.2177571353
   19      O       2.8941920765     0.5668842638    -0.8302942093
   20      C       3.1834085407    -0.7020447052    -1.4477351379
   21      Mg     -0.8865205520    -0.5355885564     0.3669274636
   22      H      -1.1961870182    -1.5708922626    -3.8582959931
   23      H      -1.2911974118    -0.5081454860    -2.4853262749
   24      H      -2.3614456693    -1.9211067310    -2.6098973913
   25      H       0.6834440068    -2.1794996576    -2.3889969076
   26      H      -0.5177685298    -3.4626957198    -2.2564813649
   27      H       1.3846783997    -3.1359045406    -0.1649423467
   28      H      -0.0508787391    -4.1586838819    -0.0606199500
   29      H       1.0731428509    -3.2185437515     2.1998701984
   30      H      -0.6892669461    -3.3016284525     2.0485423938
   31      H       1.6731514917    -1.0836122984     3.0971774205
   32      H       0.1299997875    -0.3263151535     3.4999907277
   33      H       2.0928340017     0.4767906988     1.2679587450
   34      H       1.4147311950     1.5004498943     2.5603456192
   35      H       1.1757059721     2.7866181748     0.6325271894
   36      H      -0.5676990098     2.9702016643     0.8010801642
   37      H      -0.7591039250     1.6574487875    -1.4149705717
   38      H       1.0032976920     1.7123650953    -1.4753689656
   39      H      -0.7020799615     3.9783076608    -1.7116786487
   40      H      -4.1883499410     0.8623585697     1.6777234473
   41      H      -2.5417622492     1.4794861418     1.7311168828
   42      H      -4.3476572583     1.4980103136    -0.7416544776
   43      H      -2.7652622606     2.2513394839    -0.6581787554
   44      H      -4.1073514732     2.9101295494     0.2690168264
   45      H      -3.5602109503    -1.6352019019    -0.7226604377
   46      H      -4.7597459476    -0.7749171880     0.2126498184
   47      H      -3.7517182712    -2.0051604838     0.9965074901
   48      H       4.8404419709     3.2460832158    -0.2063968788
   49      H       4.8573830509     1.7134606255     0.6501420798
   50      H       3.4048340718     2.7024558450     0.6275567063
   51      H       4.6431476747     1.2587011390    -1.7495232464
   52      H       3.2503181535     2.3169340931    -1.8824389739
   53      H       2.5819383001    -1.4369155362    -0.9347509366
   54      H       4.2263229588    -0.9704961209    -1.3467270506
   55      H       2.9269483452    -0.6956841847    -2.4990864644
 ----------------------------------------------------------------
 Molecular Point Group                 C1    NOp =  1
 Largest Abelian Subgroup              C1    NOp =  1
 Nuclear Repulsion Energy =  2212.6916316320 hartrees
 There are       88 alpha and       88 beta electrons


 *******************************************
 **  MAXIMUM OPTIMIZATION CYCLES REACHED  **
 *******************************************

 Q-Chem fatal error occurred in module 0, line  440:

 Maximum optimization cycles reached

Reading symbols from /usr/local/bin/qchem4/exe/qcprog.exe...(no debugging symbols found)...done.
Attaching to program: /usr/local/bin/qchem4/exe/qcprog.exe, process 51262
0x00007fff8411d91a in wait4 () from /usr/lib/system/libsystem_kernel.dylib
(gdb) #0  0x00007fff8411d91a in wait4 () from /usr/lib/system/libsystem_kernel.dylib
#1  0x00007fff8d3a4228 in system () from /usr/lib/system/libsystem_c.dylib
#2  0x0000000114ad8db1 in QTraceback() ()
#3  0x0000000114ad8899 in qkill_ ()
#4  0x0000000114ae91e6 in qcrashloc_ ()
#5  0x000000010ad21004 in optmain_ ()
#6  0x000000010ad1c668 in optgeom_ ()
#7  0x000000010ad224f3 in OptMan() ()
#8  0x000000010ad4fb06 in optman_main() ()
#9  0x000000010a267a4e in qrun(char const*) ()
#10 0x000000010a265e49 in ProgMan(std::basic_ifstream<char, std::char_traits<char> >&) ()
#11 0x000000010a26194e in main ()
(gdb) A debugging session is active.

	Inferior 1 [process 51262] will be detached.

Quit anyway? (y or n) [answered Y; input not from terminal]
Detaching from program: /usr/local/bin/qchem4/exe/qcprog.exe, process 51262
