
Running Job 1 of 1 cageMg_1A3.in
qchem cageMg_1A3.in_33718.0 /usr/local/bin/qscratch/qchem33718/ 1
                  Welcome to Q-Chem
     A Quantum Leap Into The Future Of Chemistry


 Q-Chem 4.2, Q-Chem, Inc., Pleasanton, CA (2014).

 Y. Shao,  Z. Gan,  E. Epifanovsky,  A. T. B. Gilbert,  M. Wormit,  
 J. Kussmann,  A. W. Lange,  A. Behn,  J. Deng,  X. Feng,  D. Ghosh,  
 M. Goldey,  P. R. Horn,  L. D. Jacobson,  I. Kaliman,  R. Z. Khaliullin,  
 T. Kus,  A. Landau,  J. Liu,  E. I. Proynov,  Y. M. Rhee,  R. M. Richard,  
 M. A. Rohrdanz,  R. P. Steele,  E. J. Sundstrom,  H. L. Woodcock III,  
 P. M. Zimmerman,  D. Zuev,  B. Albrecht,  E. Alguire,  B. Austin,  
 G. J. O. Beran,  Y. A. Bernard,  E. Berquist,  K. Brandhorst,  
 K. B. Bravaya,  S. T. Brown,  D. Casanova,  C.-M. Chang,  Y. Chen,  
 S. H. Chien,  K. D. Closser,  D. L. Crittenden,  M. Diedenhofen,  
 R. A. DiStasio Jr.,  H. Do,  A. D. Dutoi,  R. G. Edgar,  S. Fatehi,  
 L. Fusti-Molnar,  A. Ghysels,  A. Golubeva-Zadorozhnaya,  J. Gomes,  
 M. W. D. Hanson-Heine,  P. H. P. Harbach,  A. W. Hauser,  E. G. Hohenstein,  
 Z. C. Holden,  T.-C. Jagau,  H. Ji,  B. Kaduk,  K. Khistyaev,  Jaehoon Kim,  
 Jihan Kim,  R. A. King,  P. Klunzinger,  D. Kosenkov,  T. Kowalczyk,  
 C. M. Krauter,  K. U. Lao,  A. Laurent,  K. V. Lawler,  S. V. Levchenko,  
 C. Y. Lin,  F. Liu,  E. Livshits,  R. C. Lochan,  A. Luenser,  P. Manohar,  
 S. F. Manzer,  S.-P. Mao,  N. Mardirossian,  A. V. Marenich,  S. A. Maurer,  
 N. J. Mayhall,  C. M. Oana,  R. Olivares-Amaya,  D. P. O'Neill,  
 J. A. Parkhill,  T. M. Perrine,  R. Peverati,  P. A. Pieniazek,  A. Prociuk,  
 D. R. Rehn,  E. Rosta,  N. J. Russ,  N. Sergueev,  S. M. Sharada,  
 S. Sharma,  D. W. Small,  A. Sodt,  T. Stein,  D. Stuck,  Y.-C. Su,  
 A. J. W. Thom,  T. Tsuchimochi,  L. Vogt,  O. Vydrov,  T. Wang,  
 M. A. Watson,  J. Wenzel,  A. White,  C. F. Williams,  V. Vanovschi,  
 S. Yeganeh,  S. R. Yost,  Z.-Q. You,  I. Y. Zhang,  X. Zhang,  Y. Zhao,  
 B. R. Brooks,  G. K. L. Chan,  D. M. Chipman,  C. J. Cramer,  
 W. A. Goddard III,  M. S. Gordon,  W. J. Hehre,  A. Klamt,  
 H. F. Schaefer III,  M. W. Schmidt,  C. D. Sherrill,  D. G. Truhlar,  
 A. Warshel,  X. Xu,  A. Aspuru-Guzik,  R. Baer,  A. T. Bell,  N. A. Besley,  
 J.-D. Chai,  A. Dreuw,  B. D. Dunietz,  T. R. Furlani,  S. R. Gwaltney,  
 C.-P. Hsu,  Y. Jung,  J. Kong,  D. S. Lambrecht,  W. Liang,  C. Ochsenfeld,  
 V. A. Rassolov,  L. V. Slipchenko,  J. E. Subotnik,  T. Van Voorhis,  
 J. M. Herbert,  A. I. Krylov,  P. M. W. Gill,  M. Head-Gordon

 Contributors to earlier versions of Q-Chem not listed above: 
 R. D. Adamson,  J. Baker,  E. F. C. Byrd,  A. K. Chakraborty,  C.-L. Cheng,  
 H. Dachsel,  R. J. Doerksen,  G. Hawkins,  A. Heyden,  S. Hirata,  
 G. Kedziora,  F. J. Keil,  C. Kelley,  P. P. Korambath,  W. Kurlancheek,  
 A. M. Lee,  M. S. Lee,  D. Liotard,  I. Lotan,  P. E. Maslen,  N. Nair,  
 D. Neuhauser,  R. Olson,  B. Peters,  J. Ritchie,  N. E. Schultz,  
 N. Shenvi,  A. C. Simmonett,  K. S. Thanthiriwatte,  Q. Wu,  W. Zhang

 Q-Chem 4.2.0.0  for Mac (Intel) OS X

 Parts of Q-Chem use Armadillo 4.100.2 (Dirt Cruiser).
 http://arma.sourceforge.net/

 Q-Chem begins on Mon Jul 20 14:26:55 2015  

Host: 
0

     Scratch files written to /usr/local/bin/qscratch/qchem33718//
 Dec114 28887_epif 4730   
Processing $rem in /usr/local/bin/qchem4/config/preferences.
 MEM_TOTAL  6000 
Checking the input file for consistency...	...done.

--------------------------------------------------------------
User input:
--------------------------------------------------------------
$molecule
2 1
C   -1.5634344    3.6684473    0.7974220
C   -0.0687311    3.9460387    0.7978112
O    0.3215135    4.3959990   -0.4831666
C    1.7021604    4.7171724   -0.5056990
C    2.4960507    3.6347536   -1.2332024
O    2.3596728    2.4143815   -0.5383744
C    3.4066235    1.5346670   -0.8842713
C    3.0649912    0.1448562   -0.3649173
O    1.9032651   -0.3198274   -1.0223690
C    1.2513207   -1.3201306   -0.2643742
C    0.0341210   -0.7194486    0.4358058
O   -0.6361242   -1.6991486    1.1800749
C   -2.9627702    0.1459120   -3.0330922
C   -3.2302061   -1.1982814   -2.3722082
O   -3.2377899    1.1760723   -2.1096959
C   -3.1423005    2.4230692   -2.7609902
C    3.3378360   -0.9892193    3.7547949
C    2.3565993    0.1637697    3.9020880
O    2.9959192    1.3644861    3.5282189
C    2.1309222    2.4489450    3.7785673
Mg    0.0041118    1.6689453   -2.0387355
H   -1.8791357    3.3150943    1.8019831
H   -1.8044786    2.8848035    0.0491008
H   -2.1222824    4.5962498    0.5507186
H    0.4519909    2.9985827    1.0554615
H    0.1268250    4.7244790    1.5705162
H    2.1457774    4.8844580    0.5054889
H    1.8201155    5.6775843   -1.0507179
H    3.5566085    3.9794711   -1.2685733
H    2.1013382    3.5248835   -2.2674740
H    4.3516358    1.8675932   -0.3997186
H    3.5436193    1.4656094   -1.9890929
H    2.9227303    0.2379929    0.7374868
H    3.9109820   -0.5441867   -0.5800953
H    1.9161840   -1.8233297    0.4790352
H    0.9171917   -2.1174676   -0.9615475
H   -0.6552880   -0.2552357   -0.3049201
H    0.3592042    0.0876645    1.1239844
H   -1.1546074   -2.2438685    0.5317872
H   -3.6257306    0.2148150   -3.9267801
H   -1.8929034    0.1734978   -3.3407433
H   -4.2944215   -1.2634566   -2.0607612
H   -2.5834542   -1.3210778   -1.4788581
H   -3.0137189   -2.0193693   -3.0877556
H   -3.2923736    3.2233596   -2.0080910
H   -3.9424271    2.5379102   -3.5249147
H   -2.1334267    2.5796638   -3.2029052
H    2.8422145   -1.9421645    4.0363799
H    4.2141399   -0.8286734    4.4180318
H    3.6874916   -1.0641234    2.7037230
H    2.0302607    0.1942488    4.9673829
H    1.4877066   -0.0386617    3.2378868
H    2.6015821    3.3713682    3.3805951
H    1.9823591    2.5957842    4.8710175
H    1.1584000    2.3299056    3.2523366
$end

$rem
BASIS  =  3-21G
METHOD  =  HF
$end
--------------------------------------------------------------
 ----------------------------------------------------------------
             Standard Nuclear Orientation (Angstroms)
    I     Atom           X                Y                Z
 ----------------------------------------------------------------
    1      C      -1.0559701476    -1.8944159710    -2.4481880291
    2      C       0.0333634360    -2.3901990056    -1.5107731701
    3      O      -0.5617968938    -3.0580366199    -0.4174130527
    4      C       0.4275012207    -3.5824635898     0.4521336788
    5      C       0.5361839785    -2.7363109657     1.7183750693
    6      O       0.9342616082    -1.4286174228     1.3688543371
    7      C       1.4838135556    -0.7688076194     2.4879127430
    8      C       1.6156291945     0.7125819871     2.1621448249
    9      O       0.3268907431     1.2554308236     1.9565980857
   10      C       0.3858014890     2.4329765247     1.1755028577
   11      C      -0.0416075259     2.1186883655    -0.2566949268
   12      O      -0.0058657943     3.2769793036    -1.0441349834
   13      C      -4.6151193983     1.2632128126     0.0818459102
   14      C      -4.3335845811     2.7074037430    -0.3057056629
   15      O      -4.2093750486     0.4163397874    -0.9706294614
   16      C      -4.6083237760    -0.9055965707    -0.6849234286
   17      C       4.6423580026     2.3248633886    -0.4014584089
   18      C       4.0001584296     1.3613015158    -1.3878825461
   19      O       4.1892796305     0.0397721167    -0.9317892109
   20      C       3.7037607043    -0.8604861934    -1.9017127050
   21      Mg     -1.7967269946    -0.5427439972     1.0336593068
   22      H      -0.5963065859    -1.3687629133    -3.3119396891
   23      H      -1.7256345378    -1.1888155811    -1.9135271793
   24      H      -1.6522804288    -2.7523725338    -2.8254355852
   25      H       0.6096028001    -1.5058346483    -1.1628423880
   26      H       0.6864111743    -3.0806821867    -2.0921905193
   27      H       1.4371127862    -3.6798310921    -0.0152906895
   28      H       0.1232294992    -4.6129507954     0.7329625649
   29      H       1.2818138753    -3.2375692684     2.3799189253
   30      H      -0.4544987527    -2.7055658751     2.2235380180
   31      H       2.4988732705    -1.1728312636     2.7002758543
   32      H       0.8337255456    -0.8669508389     3.3889793649
   33      H       2.2597199619     0.7875995679     1.2545508329
   34      H       2.1030209587     1.2328277375     3.0157113136
   35      H       1.3890380816     2.9242979266     1.1809523807
   36      H      -0.3169531426     3.1726603937     1.6141858780
   37      H      -1.0601936507     1.6695994077    -0.2726529647
   38      H       0.6481992677     1.3695960376    -0.6968400170
   39      H      -0.8155821983     3.8031473389    -0.8132062414
   40      H      -5.7102887410     1.1774265049     0.2720747149
   41      H      -4.0414341154     1.0355213186     1.0087045430
   42      H      -4.8997735201     2.9715835985    -1.2240958563
   43      H      -3.2494074146     2.8483849246    -0.4957729014
   44      H      -4.6450597563     3.3854983559     0.5166270192
   45      H      -4.2223573966    -1.5683431021    -1.4859483060
   46      H      -5.7165987637    -0.9987945782    -0.6884385658
   47      H      -4.1733372152    -1.2682340074     0.2726348525
   48      H       4.4905857383     3.3699381258    -0.7447065863
   49      H       5.7322393886     2.1235501630    -0.3293595452
   50      H       4.1847289613     2.2076754765     0.6032626746
   51      H       4.4854593950     1.5204024224    -2.3785636027
   52      H       2.9159113789     1.6024234726    -1.4460612784
   53      H       3.7586747909    -1.8872203831    -1.4850971505
   54      H       4.3353561079    -0.8384592762    -2.8169625320
   55      H       2.6357857206    -0.6674209013    -2.1447019743
 ----------------------------------------------------------------
 Molecular Point Group                 C1    NOp =  1
 Largest Abelian Subgroup              C1    NOp =  1
 Nuclear Repulsion Energy =  2024.9260203894 hartrees
 There are       88 alpha and       88 beta electrons
 Requested basis set is 3-21G
 There are 132 shells and 261 basis functions

Total QAlloc Memory Limit   6000 MB
Mega-Array Size        61 MB
MEM_STATIC part        62 MB
 A cutoff of  1.0D-08 yielded   3839 shell pairs
 There are     16778 function pairs
 
 -------------------------------------------------------
 OpenMP Integral Computing Module                       
 Release: version 1.0, May 2013, Q-Chem Inc. Pittsburgh 
 -------------------------------------------------------
 Integral Job Info:
 Integral job number is                      11
 Integral operator is                         1
 short-range coefficients               -999999
 long-range coefficients                -999999
 Omega coefficients                           0
 if combine SR and LR in K              -999999
 Integral screening is                        0
 Integral computing path is                   2
 max size of driver memory is            800000
 size of driver memory is                 45569
 size of scratch memory is               945100
 max col of scratch BK array                289
 max len of scratch array in speh3           22
 max len of scratch index in speh4            8
 max int batch size is                      520
 min int batch size is                       52
 fixed nKL is                                52
 max L of basis functions is                  1
 order of int derivative is                   0
 number of shells is                        132
 number of basis is                         261
 number of cartesian basis is               261
 number of contracted shell pairs          3839
 number of primitive shell pairs           7702
 maxK2 (contraction) of shell pair            9
 max number of K2 of shell pair               1
 max number of CS2 of shell pair            711
 max number of PS2 of shell pair           1422
 mem total for path MDJ                   41802
 -------------------------------------------------------
         cpu   0.01 wall   0.01
 Smallest overlap matrix eigenvalue = 1.25E-02

  Scale SEOQF with 1.000000e-02/1.000000e-01/1.000000e-01

 Standard Electronic Orientation quadrupole field applied
 Nucleus-field energy     =     0.0000000179 hartrees
 Guess from superposition of atomic densities
 Warning:  Energy on first SCF cycle will be non-variational
 A restricted Hartree-Fock SCF calculation will be
 performed using Pulay DIIS extrapolation
 SCF converges when DIIS error is below 1.0E-05
 ---------------------------------------
  Cycle       Energy         DIIS Error
 ---------------------------------------
    1   -1197.5900309511      5.76E-02
    2   -1191.0900936611      5.02E-03
    3   -1191.3394263431      2.16E-03
    4   -1191.3718711152      5.82E-04
    5   -1191.3752700802      1.29E-04
    6   -1191.3755141251      3.77E-05
    7   -1191.3755581279      1.19E-05
    8   -1191.3755649547      5.23E-06 Convergence criterion met
 ---------------------------------------
 SCF time:  CPU 8.86 s  wall 8.88 s
 SCF   energy in the final basis set = -1191.3755649547
 Total energy in the final basis set = -1191.3755649547
 Analysis of SCF Wavefunction
 
 --------------------------------------------------------------
 
                    Orbital Energies (a.u.)
 --------------------------------------------------------------
 
 Alpha MOs
 -- Occupied --
-49.219 -20.756 -20.754 -20.737 -20.729 -20.693 -20.621 -11.502
-11.497 -11.494 -11.491 -11.486 -11.480 -11.478 -11.474 -11.463
-11.401 -11.397 -11.389 -11.386 -11.319  -4.261  -2.776  -2.775
 -2.774  -1.684  -1.663  -1.661  -1.642  -1.601  -1.547  -1.316
 -1.281  -1.281  -1.246  -1.212  -1.186  -1.178  -1.111  -1.097
 -1.083  -1.083  -1.078  -1.068  -0.986  -0.968  -0.959  -0.953
 -0.951  -0.933  -0.923  -0.914  -0.906  -0.894  -0.888  -0.885
 -0.862  -0.850  -0.845  -0.841  -0.831  -0.815  -0.810  -0.808
 -0.788  -0.787  -0.769  -0.764  -0.754  -0.754  -0.749  -0.747
 -0.745  -0.734  -0.733  -0.729  -0.725  -0.715  -0.705  -0.699
 -0.691  -0.685  -0.664  -0.660  -0.659  -0.657  -0.626  -0.579
 -- Virtual --
 -0.364  -0.235  -0.208  -0.172  -0.057  -0.038  -0.018  -0.011
  0.009   0.022   0.026   0.032   0.044   0.057   0.060   0.069
  0.071   0.076   0.086   0.092   0.096   0.097   0.101   0.107
  0.111   0.112   0.116   0.120   0.125   0.132   0.136   0.140
  0.144   0.149   0.157   0.159   0.168   0.172   0.176   0.179
  0.183   0.190   0.195   0.200   0.209   0.214   0.220   0.222
  0.224   0.229   0.230   0.248   0.251   0.264   0.267   0.285
  0.288   0.308   0.326   0.659   0.684   0.688   0.695   0.702
  0.711   0.715   0.719   0.725   0.735   0.736   0.742   0.751
  0.752   0.757   0.762   0.774   0.786   0.789   0.796   0.799
  0.807   0.811   0.817   0.819   0.831   0.837   0.842   0.847
  0.865   0.885   0.890   0.901   0.905   0.908   0.934   0.942
  0.943   0.964   0.982   0.995   1.012   1.022   1.033   1.040
  1.045   1.053   1.062   1.078   1.079   1.086   1.094   1.107
  1.119   1.122   1.132   1.136   1.140   1.150   1.153   1.160
  1.164   1.169   1.173   1.177   1.192   1.198   1.199   1.222
  1.231   1.246   1.260   1.276   1.305   1.310   1.357   1.549
  1.566   1.625   1.634   1.669   1.683   1.718   1.724   1.744
  1.769   1.797   1.808   1.818   1.830   1.859   1.870   1.892
  1.900   1.915   1.951   1.957   2.029   2.065   2.093   2.103
  2.121   2.149   2.189   2.191   2.222   2.255   2.299   3.179
  3.245   3.262   3.271   3.291   3.349
 --------------------------------------------------------------
 
          Ground-State Mulliken Net Atomic Charges

     Atom                 Charge (a.u.)
  ----------------------------------------
      1 C                    -0.606027
      2 C                    -0.122998
      3 O                    -0.670597
      4 C                    -0.097055
      5 C                    -0.116633
      6 O                    -0.680356
      7 C                    -0.119471
      8 C                    -0.113343
      9 O                    -0.699924
     10 C                    -0.136091
     11 C                    -0.077048
     12 O                    -0.624724
     13 C                    -0.086472
     14 C                    -0.593898
     15 O                    -0.624649
     16 C                    -0.274150
     17 C                    -0.595362
     18 C                    -0.069911
     19 O                    -0.651828
     20 C                    -0.242797
     21 Mg                    1.457123
     22 H                     0.268348
     23 H                     0.131180
     24 H                     0.270688
     25 H                     0.212825
     26 H                     0.265560
     27 H                     0.266488
     28 H                     0.275454
     29 H                     0.283001
     30 H                     0.148061
     31 H                     0.286119
     32 H                     0.220260
     33 H                     0.276695
     34 H                     0.273735
     35 H                     0.294889
     36 H                     0.248524
     37 H                     0.080806
     38 H                     0.265944
     39 H                     0.402636
     40 H                     0.283877
     41 H                     0.066823
     42 H                     0.288310
     43 H                     0.182997
     44 H                     0.247732
     45 H                     0.283491
     46 H                     0.300349
     47 H                     0.049685
     48 H                     0.217193
     49 H                     0.249387
     50 H                     0.168508
     51 H                     0.220063
     52 H                     0.155711
     53 H                     0.200284
     54 H                     0.223235
     55 H                     0.137354
  ----------------------------------------
  Sum of atomic charges =     2.000000

 -----------------------------------------------------------------
                    Cartesian Multipole Moments
 -----------------------------------------------------------------
    Charge (ESU x 10^10)
                 9.6064
    Dipole Moment (Debye)
         X     -12.5950      Y      -4.0145      Z       8.2309
       Tot      15.5723
    Quadrupole Moments (Debye-Ang)
        XX     -60.2463     XY      -4.2811     YY     -91.4796
        XZ     -10.0379     YZ      -0.0154     ZZ    -106.3658
    Octopole Moments (Debye-Ang^2)
       XXX    -261.9836    XXY      35.2090    XYY     -12.5400
       YYY     -18.2225    XXZ       7.4444    XYZ      -1.3098
       YYZ      27.7365    XZZ      27.4226    YZZ     -46.7463
       ZZZ      27.1950
    Hexadecapole Moments (Debye-Ang^3)
      XXXX   -5010.2955   XXXY      14.0797   XXYY   -1354.9589
      XYYY    -240.1310   YYYY   -2916.8174   XXXZ     -91.9155
      XXYZ      -7.5976   XYYZ      38.5226   YYYZ     -32.2931
      XXZZ   -1210.5935   XYZZ       7.1461   YYZZ    -781.4377
      XZZZ       8.7728   YZZZ       3.9142   ZZZZ   -1631.8111
 -----------------------------------------------------------------
Archival summary:
1\1\Brandons-MBP.dhcp.lbnl.us\SP\HF\3-21G\g161413146g1(2+,1)\MonJul2014:27:042015MonJul2014:27:042015\0\\#,HF,3-21G,\\2,1\Mg\H,1,2.5988\C,2,1.11249,1,121.24\H,3,1.10898,2,106.907,1,-83.6301,0\H,3,1.11219,2,111.409,1,159.643,0\O,3,1.41007,2,111.677,1,34.7683,0\C,6,1.41051,3,109.287,2,58.6707,0\H,7,1.11356,6,110.494,3,-68.069,0\H,7,1.11487,6,111.327,3,54.9637,0\C,7,1.52156,6,109.062,3,173.236,0\H,10,1.1097,7,110.181,6,59.8757,0\H,10,1.11043,7,109.821,6,179.785,0\H,10,1.11077,7,110,6,-60.3619,0\H,11,2.49639,10,141.396,7,9.08073,0\C,14,1.11331,11,127.817,10,160.117,0\H,15,1.10937,14,106.908,11,149.368,0\O,15,1.40106,14,110.412,11,31.379,0\H,17,0.992885,15,106.654,14,-45.5321,0\C,15,1.5273,14,110.639,11,-91.2347,0\H,19,1.1106,15,109.292,14,61.5294,0\H,19,1.1171,15,110.267,14,177.509,0\O,19,1.41428,15,109.567,14,-56.7007,0\C,22,1.41343,19,111.23,15,-102.575,0\H,23,1.11211,22,109.363,19,-83.2139,0\H,23,1.11544,22,112.478,19,39.1572,0\C,23,1.5225,22,109.018,19,157.455,0\H,26,1.11296,23,108.366,22,177.053,0\H,26,1.11542,23,107.994,22,57.6755,0\O,26,1.41055,23,108.609,22,-63.8457,0\C,29,1.41092,26,110.3,23,167.725,0\H,30,1.11247,29,109.763,26,-80.6408,0\H,30,1.11573,29,112.007,26,41.5637,0\C,30,1.52681,29,109.165,26,159.727,0\H,33,1.11056,30,108.906,29,-179.479,0\H,33,1.11682,30,109.334,29,-64.2932,0\O,33,1.41769,30,110.692,29,62.0688,0\C,36,1.41268,33,110.83,30,-104.861,0\H,37,1.1114,36,110.629,33,63.9047,0\H,37,1.11413,36,110.969,33,-59.309,0\C,37,1.52026,36,109.24,33,-177.63,0\H,40,1.11004,37,110.034,36,-60.3108,0\H,40,1.11071,37,109.713,36,179.932,0\H,40,1.11085,37,110.009,36,60.1776,0\H,16,2.3996,15,130.24,14,-166.928,0\C,44,1.11226,16,152.113,15,-116.768,0\H,45,1.11458,44,110.305,16,-154.564,0\O,45,1.41075,44,110.528,16,-31.0939,0\C,47,1.40959,45,109.247,44,-66.7583,0\H,48,1.1094,47,108.399,45,174.009,0\H,48,1.11215,47,111.729,45,56.5028,0\H,48,1.11224,47,110.976,45,-68.2635,0\C,45,1.52115,44,107.948,16,88.146,0\H,52,1.11024,45,110.241,44,-60.5983,0\H,52,1.11042,45,109.756,44,59.2644,0\H,52,1.11066,45,109.972,44,179.112,0\\HF=-1191.37556\\@

 Total job time:  9.03s(wall), 9.01s(cpu) 
 Mon Jul 20 14:27:04 2015

        *************************************************************
        *                                                           *
        *  Thank you very much for using Q-Chem.  Have a nice day.  *
        *                                                           *
        *************************************************************


