
Running Job 1 of 1 PEO7Mg_geo_1A2.in
qchem PEO7Mg_geo_1A2.in_57861.0 /usr/local/bin/qscratch/qchem57861/ 1
                  Welcome to Q-Chem
     A Quantum Leap Into The Future Of Chemistry


 Q-Chem 4.2, Q-Chem, Inc., Pleasanton, CA (2014).

 Y. Shao,  Z. Gan,  E. Epifanovsky,  A. T. B. Gilbert,  M. Wormit,  
 J. Kussmann,  A. W. Lange,  A. Behn,  J. Deng,  X. Feng,  D. Ghosh,  
 M. Goldey,  P. R. Horn,  L. D. Jacobson,  I. Kaliman,  R. Z. Khaliullin,  
 T. Kus,  A. Landau,  J. Liu,  E. I. Proynov,  Y. M. Rhee,  R. M. Richard,  
 M. A. Rohrdanz,  R. P. Steele,  E. J. Sundstrom,  H. L. Woodcock III,  
 P. M. Zimmerman,  D. Zuev,  B. Albrecht,  E. Alguire,  B. Austin,  
 G. J. O. Beran,  Y. A. Bernard,  E. Berquist,  K. Brandhorst,  
 K. B. Bravaya,  S. T. Brown,  D. Casanova,  C.-M. Chang,  Y. Chen,  
 S. H. Chien,  K. D. Closser,  D. L. Crittenden,  M. Diedenhofen,  
 R. A. DiStasio Jr.,  H. Do,  A. D. Dutoi,  R. G. Edgar,  S. Fatehi,  
 L. Fusti-Molnar,  A. Ghysels,  A. Golubeva-Zadorozhnaya,  J. Gomes,  
 M. W. D. Hanson-Heine,  P. H. P. Harbach,  A. W. Hauser,  E. G. Hohenstein,  
 Z. C. Holden,  T.-C. Jagau,  H. Ji,  B. Kaduk,  K. Khistyaev,  Jaehoon Kim,  
 Jihan Kim,  R. A. King,  P. Klunzinger,  D. Kosenkov,  T. Kowalczyk,  
 C. M. Krauter,  K. U. Lao,  A. Laurent,  K. V. Lawler,  S. V. Levchenko,  
 C. Y. Lin,  F. Liu,  E. Livshits,  R. C. Lochan,  A. Luenser,  P. Manohar,  
 S. F. Manzer,  S.-P. Mao,  N. Mardirossian,  A. V. Marenich,  S. A. Maurer,  
 N. J. Mayhall,  C. M. Oana,  R. Olivares-Amaya,  D. P. O'Neill,  
 J. A. Parkhill,  T. M. Perrine,  R. Peverati,  P. A. Pieniazek,  A. Prociuk,  
 D. R. Rehn,  E. Rosta,  N. J. Russ,  N. Sergueev,  S. M. Sharada,  
 S. Sharma,  D. W. Small,  A. Sodt,  T. Stein,  D. Stuck,  Y.-C. Su,  
 A. J. W. Thom,  T. Tsuchimochi,  L. Vogt,  O. Vydrov,  T. Wang,  
 M. A. Watson,  J. Wenzel,  A. White,  C. F. Williams,  V. Vanovschi,  
 S. Yeganeh,  S. R. Yost,  Z.-Q. You,  I. Y. Zhang,  X. Zhang,  Y. Zhao,  
 B. R. Brooks,  G. K. L. Chan,  D. M. Chipman,  C. J. Cramer,  
 W. A. Goddard III,  M. S. Gordon,  W. J. Hehre,  A. Klamt,  
 H. F. Schaefer III,  M. W. Schmidt,  C. D. Sherrill,  D. G. Truhlar,  
 A. Warshel,  X. Xu,  A. Aspuru-Guzik,  R. Baer,  A. T. Bell,  N. A. Besley,  
 J.-D. Chai,  A. Dreuw,  B. D. Dunietz,  T. R. Furlani,  S. R. Gwaltney,  
 C.-P. Hsu,  Y. Jung,  J. Kong,  D. S. Lambrecht,  W. Liang,  C. Ochsenfeld,  
 V. A. Rassolov,  L. V. Slipchenko,  J. E. Subotnik,  T. Van Voorhis,  
 J. M. Herbert,  A. I. Krylov,  P. M. W. Gill,  M. Head-Gordon

 Contributors to earlier versions of Q-Chem not listed above: 
 R. D. Adamson,  J. Baker,  E. F. C. Byrd,  A. K. Chakraborty,  C.-L. Cheng,  
 H. Dachsel,  R. J. Doerksen,  G. Hawkins,  A. Heyden,  S. Hirata,  
 G. Kedziora,  F. J. Keil,  C. Kelley,  P. P. Korambath,  W. Kurlancheek,  
 A. M. Lee,  M. S. Lee,  D. Liotard,  I. Lotan,  P. E. Maslen,  N. Nair,  
 D. Neuhauser,  R. Olson,  B. Peters,  J. Ritchie,  N. E. Schultz,  
 N. Shenvi,  A. C. Simmonett,  K. S. Thanthiriwatte,  Q. Wu,  W. Zhang

 Q-Chem 4.2.0.0  for Mac (Intel) OS X

 Parts of Q-Chem use Armadillo 4.100.2 (Dirt Cruiser).
 http://arma.sourceforge.net/

 Q-Chem begins on Tue Jul 14 16:16:09 2015  

Host: 
0

     Scratch files written to /usr/local/bin/qscratch/qchem57861//
 Dec114 28887_epif 4730   
Processing $rem in /usr/local/bin/qchem4/config/preferences.
 MEM_TOTAL  6000 
Checking the input file for consistency...	...done.

--------------------------------------------------------------
User input:
--------------------------------------------------------------
$molecule
2 1
C    4.7145270   -0.4008941   -0.0391365
C    3.5383092    0.5625805    0.0274467
O    2.3541393   -0.2112903    0.0270052
C    1.1757183    0.5694072   -0.0164175
C   -0.0061121   -0.3812919    0.1056140
O   -1.1878055    0.3863528   -0.0170132
C   -2.3666809   -0.3839961    0.1126830
C   -3.5506480    0.5483561   -0.0974694
O   -4.7289560   -0.2193898    0.0541301
C   -5.9124074    0.5346967   -0.1222172
C   -7.0896736   -0.4049884    0.0929494
O   -8.2752623    0.3429948   -0.0963243
C   -9.4523825   -0.4203765    0.0777438
C  -10.6535526    0.4949178   -0.1468379
O    5.8991242    0.3653206    0.0552610
C    7.0761022   -0.4125654   -0.0528261
C    8.2636526    0.5185456    0.1422168
O    9.4386480   -0.2521381   -0.0039665
C   10.6267093    0.5042742    0.1617672
C   11.8175960   -0.4176423   -0.0416367
O  -11.8796390   -0.2026718    0.0260024
H    4.6809321   -0.9665293   -0.9840230
H    4.6454507   -1.1276915    0.7863785
H    3.5661295    1.2466262   -0.8358649
H    3.6118590    1.1748187    0.9405144
H    1.1053349    1.1302328   -0.9622400
H    1.1533985    1.3014233    0.8069664
H    0.0308815   -0.9005812    1.0765389
H    0.0511665   -1.1479324   -0.6839952
H   -2.4301720   -0.8477691    1.1101201
H   -2.3938456   -1.1944867   -0.6333529
H   -3.4971283    0.9990264   -1.1014070
H   -3.5151728    1.3680690    0.6380043
H   -5.9606058    0.9670582   -1.1345180
H   -5.9623762    1.3669019    0.5980801
H   -7.0467018   -0.8301729    1.1083457
H   -7.0324890   -1.2423807   -0.6212650
H   -9.5015127   -0.8535426    1.0896112
H   -9.4790071   -1.2603420   -0.6409554
H  -10.5784033    0.9634303   -1.1396391
H  -10.6476507    1.2963584    0.5974773
H    7.1414074   -0.8973348   -1.0400491
H    7.0962543   -1.2074558    0.7099598
H    8.2121840    0.9829758    1.1406433
H    8.2248696    1.3304396   -0.6027344
H   10.6510382    0.9551180    1.1686562
H   10.6494731    1.3345758   -0.5647809
H   11.7992535   -1.2350462    0.6865673
H   12.7550347    0.1360239    0.0804783
H   11.7986770   -0.8528912   -1.0460100
H  -11.9720155   -0.8247469   -0.7119593
Mg    2.4481738   -2.2072224    0.1131033
$end

$rem
BASIS  =  3-21++G
DFT_D  =  EMPIRICAL_GRIMME3
dft_d3_3body = True
dft_d3_rs6 = 1094
dft_d3_s6 = 1000
dft_d3_s8 = 1682
JOB_TYPE  =  Optimization
METHOD  =  BLYP
geom_opt_max_cycles = 250
MAX_SCF_CYCLES = 300
SCF_ALGORITHM = gdm
SCF_GUESS = sad
SCF_CONVERGENCE = 7
THRESH = 11
$end
--------------------------------------------------------------
 ----------------------------------------------------------------
             Standard Nuclear Orientation (Angstroms)
    I     Atom           X                Y                Z
 ----------------------------------------------------------------
    1      C       4.5590197059    -0.2687718638    -0.0850928990
    2      C       3.3769763975     0.6836792545     0.0236058809
    3      O       2.1977857235    -0.0973454638    -0.0017772974
    4      C       1.0142185466     0.6767025823    -0.0100556182
    5      C      -0.1609585611    -0.2857290390     0.0800981392
    6      O      -1.3480665267     0.4783134803    -0.0078155334
    7      C      -2.5214071747    -0.3041829717     0.0969545352
    8      C      -3.7122301816     0.6278057728    -0.0720433826
    9      O      -4.8849227660    -0.1529318163     0.0547116472
   10      C      -6.0739407111     0.5996259396    -0.0873981201
   11      C      -7.2442103479    -0.3553668904     0.0962268525
   12      O      -8.4353839570     0.3915774256    -0.0590264510
   13      C      -9.6068169063    -0.3856488229     0.0903442765
   14      C     -10.8147974943     0.5297395383    -0.0936591252
   15      O       5.7391040322     0.5009770464     0.0338775964
   16      C       6.9205371389    -0.2644201253    -0.1091246645
   17      C       8.1029679879     0.6662311809     0.1167753425
   18      O       9.2822032705    -0.0905110225    -0.0640076724
   19      C      10.4661311746     0.6667108696     0.1258517586
   20      C      11.6619694823    -0.2388341240    -0.1180197615
   21      O     -12.0356209848    -0.1820291634     0.0572322250
   22      H       4.5248423769    -0.7977036915    -1.0509838486
   23      H       4.4982577077    -1.0273440989     0.7120000408
   24      H       3.3965889169     1.4007217009    -0.8127342931
   25      H       3.4506682372     1.2606690860     0.9593355740
   26      H       0.9360511722     1.2731619504    -0.9331945362
   27      H       0.9908798061     1.3762131507     0.8410889400
   28      H      -0.1163338795    -0.8418723323     1.0300656861
   29      H      -0.1022907581    -1.0209125099    -0.7387819105
   30      H      -2.5775011274    -0.8065353204     1.0759810262
   31      H      -2.5467063025    -1.0854193147    -0.6797257260
   32      H      -3.6660524770     1.1172511283    -1.0580300183
   33      H      -3.6787266665     1.4187197223     0.6944042221
   34      H      -6.1293981828     1.0704325259    -1.0820227173
   35      H      -6.1260258661     1.4030484059     0.6647255756
   36      H      -7.1940114285    -0.8191557986     1.0942438854
   37      H      -7.1848494381    -1.1641600689    -0.6500492548
   38      H      -9.6486818706    -0.8578808617     1.0849127801
   39      H      -9.6312661400    -1.1973895901    -0.6601612947
   40      H     -10.7470553848     1.0367251664    -1.0679189377
   41      H     -10.8107103345     1.3018598515     0.6810411406
   42      H       6.9845520539    -0.7102647551    -1.1146096464
   43      H       6.9491572765    -1.0880255417     0.6222809619
   44      H       8.0529690052     1.0914102944     1.1326113168
   45      H       8.0556880936     1.5060162412    -0.5960738301
   46      H      10.4920518165     1.0784842283     1.1493009791
   47      H      10.4803603485     1.5245822902    -0.5681548951
   48      H      11.6520864105    -1.0838526991     0.5781214463
   49      H      12.5963842051     0.3158383397     0.0214694290
   50      H      11.6413700964    -0.6350862284    -1.1383751870
   51      H     -12.1272981091    -0.7757340272    -0.7038250383
   52      Mg      2.3049546474    -2.0944540784     0.0067268940
 ----------------------------------------------------------------
 Molecular Point Group                 C1    NOp =  1
 Largest Abelian Subgroup              C1    NOp =  1
 Nuclear Repulsion Energy =  1733.3090245071 hartrees
 There are       90 alpha and       90 beta electrons
 Requested basis set is 3-21++G
 There are 179 shells and 380 basis functions

Total QAlloc Memory Limit   6000 MB
Mega-Array Size        61 MB
MEM_STATIC part        62 MB
 A cutoff of  1.0D-11 yielded   9222 shell pairs
 There are     43398 function pairs
 
 -------------------------------------------------------
 OpenMP Integral Computing Module                       
 Release: version 1.0, May 2013, Q-Chem Inc. Pittsburgh 
 -------------------------------------------------------
 Integral Job Info:
 Integral job number is                      11
 Integral operator is                         1
 short-range coefficients               -999999
 long-range coefficients                -999999
 Omega coefficients                           0
 if combine SR and LR in K              -999999
 Integral screening is                        0
 Integral computing path is                   2
 max size of driver memory is            800000
 size of driver memory is                 45569
 size of scratch memory is               945100
 max col of scratch BK array                289
 max len of scratch array in speh3           22
 max len of scratch index in speh4            8
 max int batch size is                      520
 min int batch size is                       52
 fixed nKL is                                52
 max L of basis functions is                  1
 order of int derivative is                   0
 number of shells is                        179
 number of basis is                         380
 number of cartesian basis is               380
 number of contracted shell pairs          9222
 number of primitive shell pairs          16701
 maxK2 (contraction) of shell pair            9
 max number of K2 of shell pair               1
 max number of CS2 of shell pair           2051
 max number of PS2 of shell pair           3046
 mem total for path MDJ                   90290
 -------------------------------------------------------
         cpu   0.03 wall   0.03
 Smallest overlap matrix eigenvalue = 7.55E-06

  Scale SEOQF with 1.000000e-02/1.000000e-01/1.000000e-01

 Standard Electronic Orientation quadrupole field applied
 Nucleus-field energy     =     0.0000000378 hartrees
 Guess from superposition of atomic densities
 Warning:  Energy on first SCF cycle will be non-variational
 A restricted Kohn-Sham SCF calculation will be
 performed using Pulay DIIS + Geometric Direct Minimization
 Exchange:  Becke88      Correlation:  LYP
 Using SG-1 standard quadrature grid
 SCF converges when RMS gradient is below 1.0E-07
 Requested basis set is 3-21++G
 There are 179 shells and 380 basis functions
 A cutoff of  1.0D-11 yielded   9222 shell pairs
 There are     43398 function pairs
 J construction time:  CPU 0.54 s  wall 0.55 s
 Inaccurate integrated density:
   Number of electrons =   180
   Numerical integral  =   182.002761316368
   Relative error      =     1.1126451758 %
 ---------------------------------------
  Cycle       Energy        RMS Gradient
 ---------------------------------------
    1   -1273.9462801900      3.85E-02 Done DIIS. Switching to GDM
 J construction time:  CPU 3.55 s  wall 3.55 s
    2   -1269.8299578333      1.27E-01 Descent step
 J construction time:  CPU 3.40 s  wall 3.41 s
    3   -1270.1642801261      3.27E-02 Normal BFGS step
 J construction time:  CPU 3.39 s  wall 3.40 s
    4   -1270.1719323220      5.54E-02 Normal BFGS step
 J construction time:  CPU 3.25 s  wall 3.26 s
    5   -1270.1873540066      7.89E-02 Normal BFGS step
 J construction time:  CPU 3.17 s  wall 3.17 s
    6   -1270.1918229125      5.38E-02 Normal BFGS step
 J construction time:  CPU 2.97 s  wall 2.97 s
    7   -1270.2028520759      3.47E-02 Normal BFGS step
 J construction time:  CPU 3.38 s  wall 3.38 s
    8   -1270.2086181823      3.58E-02 Normal BFGS step
 J construction time:  CPU 2.95 s  wall 2.95 s
    9   -1270.2150923537      3.94E-02 Normal BFGS step
 J construction time:  CPU 3.45 s  wall 3.47 s
   10   -1270.2159250278      1.30E-01 Normal BFGS step
 J construction time:  CPU 3.05 s  wall 3.05 s
   11   -1270.2346673870      8.97E-02 Normal BFGS step
 J construction time:  CPU 3.02 s  wall 3.02 s
   12   -1270.2379832677      1.83E-01 Normal BFGS step
 J construction time:  CPU 2.99 s  wall 2.99 s
   13   -1270.2561426385      4.97E-02 Normal BFGS step
 J construction time:  CPU 2.96 s  wall 2.96 s
   14   -1270.2611394014      4.33E-02 Normal BFGS step
 J construction time:  CPU 3.20 s  wall 3.20 s
   15   -1270.2624254152      4.95E-02 Normal BFGS step
 J construction time:  CPU 3.68 s  wall 3.69 s
   16   -1270.2614006619      1.37E+08 Line search: overstep
 J construction time:  CPU 2.98 s  wall 2.98 s
   17   -1270.2661096978      2.81E-02 Normal BFGS step
 J construction time:  CPU 3.01 s  wall 3.01 s
   18   -1270.2624349551      1.61E+08 Line search: overstep
 J construction time:  CPU 2.93 s  wall 2.93 s
   19   -1270.2681739882      2.10E-02 Normal BFGS step
 J construction time:  CPU 3.04 s  wall 3.04 s
   20   -1270.2696248882      2.44E-02 Normal BFGS step
 J construction time:  CPU 3.07 s  wall 3.08 s
   21   -1270.2702931091      4.86E-02 Normal BFGS step
 J construction time:  CPU 2.90 s  wall 2.90 s
   22   -1270.2707802857      2.05E-02 Normal BFGS step
 J construction time:  CPU 2.89 s  wall 2.90 s
   23   -1270.2708287331      1.23E-02 Normal BFGS step
 J construction time:  CPU 2.89 s  wall 2.90 s
   24   -1270.2709660676      1.12E-02 Normal BFGS step
 J construction time:  CPU 2.97 s  wall 2.97 s
   25   -1270.2710128514      8.39E-03 Normal BFGS step
 J construction time:  CPU 2.70 s  wall 2.70 s
   26   -1270.2710977623      1.86E-03 Normal BFGS step
 J construction time:  CPU 2.71 s  wall 2.71 s
   27   -1270.2710960512      2.50E+07 Line search: overstep
 J construction time:  CPU 2.67 s  wall 2.67 s
   28   -1270.2711192639      1.30E-03 Normal BFGS step
 J construction time:  CPU 2.63 s  wall 2.63 s
   29   -1270.2711211589      7.75E-04 Normal BFGS step
 J construction time:  CPU 2.51 s  wall 2.51 s
   30   -1270.2711228150      3.51E-04 Normal BFGS step
 J construction time:  CPU 3.33 s  wall 3.33 s
   31   -1270.2711237904      2.92E-04 Normal BFGS step
 J construction time:  CPU 2.44 s  wall 2.44 s
   32   -1270.2711239898      2.02E-04 Normal BFGS step
 J construction time:  CPU 2.20 s  wall 2.20 s
   33   -1270.2711239919      2.78E-04 Normal BFGS step
 J construction time:  CPU 2.28 s  wall 2.28 s
   34   -1270.2711240165      2.54E-04 Normal BFGS step
 J construction time:  CPU 2.19 s  wall 2.19 s
   35   -1270.2711240888      1.41E-04 Normal BFGS step
 J construction time:  CPU 2.09 s  wall 2.09 s
   36   -1270.2711241066      1.27E-04 Normal BFGS step
 J construction time:  CPU 2.02 s  wall 2.02 s
   37   -1270.2711241194      3.97E-05 Normal BFGS step
 J construction time:  CPU 1.99 s  wall 1.99 s
   38   -1270.2711241151      3.73E+04 Line search: overstep
 J construction time:  CPU 1.91 s  wall 1.91 s
   39   -1270.2711241327      2.43E-05 Normal BFGS step
 J construction time:  CPU 1.91 s  wall 1.92 s
   40   -1270.2711241406      1.58E-05 Normal BFGS step
 J construction time:  CPU 1.96 s  wall 1.96 s
   41   -1270.2711241407      2.44E-05 Normal BFGS step
 J construction time:  CPU 1.86 s  wall 1.86 s
   42   -1270.2711241467      1.45E-05 Normal BFGS step
 J construction time:  CPU 1.80 s  wall 1.80 s
   43   -1270.2711241435      4.01E+04 Line search: overstep
 J construction time:  CPU 1.84 s  wall 1.84 s
   44   -1270.2711241552      1.09E-05 Normal BFGS step
 J construction time:  CPU 1.83 s  wall 1.83 s
   45   -1270.2711241539      6.20E+03 Line search: overstep
 J construction time:  CPU 3.67 s  wall 3.68 s
   46   -1270.2711241463      3.46E+04 Line search: overstep
 J construction time:  CPU 1.41 s  wall 1.41 s
   47   -1270.2711241269      3.90E+04 Line search: overstep
 J construction time:  CPU 1.02 s  wall 1.02 s
   48   -1270.2711241259      3.94E+04 Line search: overstep
 J construction time:  CPU 0.53 s  wall 0.53 s
   49   -1270.2711241113      3.94E+04 Line search: overstep
 J construction time:  CPU 0.21 s  wall 0.21 s
   50   -1270.2711241191      3.95E+04 Line search: overstep
 J construction time:  CPU 0.09 s  wall 0.09 s
   51   -1270.2711241202      3.95E+04 Line search: overstep
 J construction time:  CPU 0.09 s  wall 0.09 s
   52   -1270.2711241205      3.95E+04 Line search: overstep
 J construction time:  CPU 0.08 s  wall 0.08 s
   53   -1270.2711241205      3.95E+04 Line search: overstep
 J construction time:  CPU 0.09 s  wall 0.09 s
   54   -1270.2711241205      3.95E+04 Line search: overstep
 J construction time:  CPU 0.08 s  wall 0.08 s
   55   -1270.2711241205      3.95E+04 Line search: overstep
 J construction time:  CPU 0.08 s  wall 0.08 s
   56   -1270.2711241205      3.95E+04 Line search: overstep
 J construction time:  CPU 0.08 s  wall 0.08 s
   57   -1270.2711241205      3.95E+04 Line search: overstep
 J construction time:  CPU 0.09 s  wall 0.09 s
   58   -1270.2711241205      3.95E+04 Line search: overstep
 J construction time:  CPU 0.09 s  wall 0.09 s
   59   -1270.2711241205      3.95E+04 Line search: overstep
 J construction time:  CPU 0.09 s  wall 0.09 s
   60   -1270.2711241205      3.95E+04 Line search: overstep
 J construction time:  CPU 3.89 s  wall 3.89 s
   61   -1270.2711241170      3.89E+04 Line search: overstep
 J construction time:  CPU 0.09 s  wall 0.09 s
   62   -1270.2711241170      3.89E+04 Line search: overstep
 J construction time:  CPU 0.09 s  wall 0.09 s
   63   -1270.2711241170      3.89E+04 Line search: overstep
 J construction time:  CPU 0.09 s  wall 0.09 s
   64   -1270.2711241170      3.89E+04 Line search: overstep
 J construction time:  CPU 0.08 s  wall 0.08 s
   65   -1270.2711241170      3.89E+04 Line search: overstep
 J construction time:  CPU 0.08 s  wall 0.08 s
   66   -1270.2711241170      3.89E+04 Line search: overstep
 J construction time:  CPU 0.08 s  wall 0.08 s
   67   -1270.2711241170      3.89E+04 Line search: overstep
 J construction time:  CPU 0.08 s  wall 0.08 s
   68   -1270.2711241170      3.89E+04 Line search: overstep
 J construction time:  CPU 0.09 s  wall 0.09 s
   69   -1270.2711241170      3.89E+04 Line search: overstep
 J construction time:  CPU 0.08 s  wall 0.08 s
   70   -1270.2711241170      3.89E+04 Line search: overstep
 J construction time:  CPU 0.09 s  wall 0.09 s
   71   -1270.2711241170      3.89E+04 Line search: overstep
 J construction time:  CPU 0.10 s  wall 0.10 s
   72   -1270.2711241170      3.89E+04 Line search: overstep
 J construction time:  CPU 0.08 s  wall 0.08 s
   73   -1270.2711241170      3.89E+04 Line search: overstep
 J construction time:  CPU 0.09 s  wall 0.09 s
   74   -1270.2711241170      3.89E+04 Line search: overstep
 J construction time:  CPU 0.09 s  wall 0.09 s
   75   -1270.2711241170      3.89E+04 Line search: overstep
 J construction time:  CPU 3.68 s  wall 3.70 s
   76   -1270.2711241170      3.89E+04 Line search: overstep
 J construction time:  CPU 0.09 s  wall 0.09 s
   77   -1270.2711241170      3.89E+04 Line search: overstep
 J construction time:  CPU 0.10 s  wall 0.10 s
   78   -1270.2711241170      3.89E+04 Line search: overstep
 J construction time:  CPU 0.08 s  wall 0.08 s
   79   -1270.2711241170      3.89E+04 Line search: overstep
 J construction time:  CPU 0.09 s  wall 0.09 s
   80   -1270.2711241170      3.89E+04 Line search: overstep
 J construction time:  CPU 0.10 s  wall 0.10 s
   81   -1270.2711241170      3.89E+04 Line search: overstep
 J construction time:  CPU 0.10 s  wall 0.10 s
   82   -1270.2711241170      3.89E+04 Line search: overstep
 J construction time:  CPU 0.09 s  wall 0.09 s
   83   -1270.2711241170      3.89E+04 Line search: overstep
 J construction time:  CPU 0.09 s  wall 0.09 s
   84   -1270.2711241170      3.89E+04 Line search: overstep
 J construction time:  CPU 0.10 s  wall 0.10 s
   85   -1270.2711241170      3.89E+04 Line search: overstep
 J construction time:  CPU 0.09 s  wall 0.09 s
   86   -1270.2711241170      3.89E+04 Line search: overstep
 J construction time:  CPU 0.09 s  wall 0.09 s
   87   -1270.2711241170      3.89E+04 Line search: overstep
 J construction time:  CPU 0.10 s  wall 0.10 s
   88   -1270.2711241170      3.89E+04 Line search: overstep
 J construction time:  CPU 0.10 s  wall 0.10 s
   89   -1270.2711241170      3.89E+04 Line search: overstep
 J construction time:  CPU 0.10 s  wall 0.10 s
   90   -1270.2711241170      3.89E+04 Line search: overstep
 J construction time:  CPU 3.64 s  wall 3.65 s
   91   -1270.2711241170      3.89E+04 Line search: overstep
 J construction time:  CPU 0.09 s  wall 0.09 s
   92   -1270.2711241170      3.89E+04 Line search: overstep
 J construction time:  CPU 0.10 s  wall 0.10 s
   93   -1270.2711241170      3.89E+04 Line search: overstep
 J construction time:  CPU 0.10 s  wall 0.10 s
   94   -1270.2711241170      3.89E+04 Line search: overstep
 J construction time:  CPU 0.09 s  wall 0.09 s
   95   -1270.2711241170      3.89E+04 Line search: overstep
 J construction time:  CPU 0.08 s  wall 0.08 s
   96   -1270.2711241170      3.89E+04 Line search: overstep
 J construction time:  CPU 0.09 s  wall 0.09 s
   97   -1270.2711241170      3.89E+04 Line search: overstep
 J construction time:  CPU 0.09 s  wall 0.09 s
   98   -1270.2711241170      3.89E+04 Line search: overstep
 J construction time:  CPU 0.10 s  wall 0.10 s
   99   -1270.2711241170      3.89E+04 Line search: overstep
 J construction time:  CPU 0.10 s  wall 0.10 s
  100   -1270.2711241170      3.89E+04 Line search: overstep
 J construction time:  CPU 0.09 s  wall 0.09 s
  101   -1270.2711241170      3.89E+04 Line search: overstep
 J construction time:  CPU 0.09 s  wall 0.09 s
  102   -1270.2711241170      3.89E+04 Line search: overstep
 J construction time:  CPU 0.10 s  wall 0.10 s
  103   -1270.2711241170      3.89E+04 Line search: overstep
 J construction time:  CPU 0.08 s  wall 0.08 s
  104   -1270.2711241170      3.89E+04 Line search: overstep
 J construction time:  CPU 0.09 s  wall 0.09 s
  105   -1270.2711241170      3.89E+04 Line search: overstep
 J construction time:  CPU 3.59 s  wall 3.60 s
  106   -1270.2711241170      3.89E+04 Line search: overstep
 J construction time:  CPU 0.08 s  wall 0.08 s
  107   -1270.2711241170      3.89E+04 Line search: overstep
 J construction time:  CPU 0.12 s  wall 0.13 s
  108   -1270.2711241170      3.89E+04 Line search: overstep
 J construction time:  CPU 0.09 s  wall 0.09 s
  109   -1270.2711241170      3.89E+04 Line search: overstep
 J construction time:  CPU 0.09 s  wall 0.09 s
  110   -1270.2711241170      3.89E+04 Line search: overstep
 J construction time:  CPU 0.09 s  wall 0.09 s
  111   -1270.2711241170      3.89E+04 Line search: overstep
 J construction time:  CPU 0.10 s  wall 0.10 s
  112   -1270.2711241170      3.89E+04 Line search: overstep
 J construction time:  CPU 0.09 s  wall 0.09 s
  113   -1270.2711241170      3.89E+04 Line search: overstep
 J construction time:  CPU 0.09 s  wall 0.09 s
  114   -1270.2711241170      3.89E+04 Line search: overstep
 J construction time:  CPU 0.10 s  wall 0.10 s
  115   -1270.2711241170      3.89E+04 Line search: overstep
 J construction time:  CPU 0.10 s  wall 0.10 s
  116   -1270.2711241170      3.89E+04 Line search: overstep
 J construction time:  CPU 0.09 s  wall 0.09 s
  117   -1270.2711241170      3.89E+04 Line search: overstep
 J construction time:  CPU 0.09 s  wall 0.09 s
  118   -1270.2711241170      3.89E+04 Line search: overstep
 J construction time:  CPU 0.09 s  wall 0.09 s
  119   -1270.2711241170      3.89E+04 Line search: overstep
 J construction time:  CPU 0.09 s  wall 0.09 s
  120   -1270.2711241170      3.89E+04 Line search: overstep
 J construction time:  CPU 3.71 s  wall 3.72 s
  121   -1270.2711241170      3.89E+04 Line search: overstep
 J construction time:  CPU 0.09 s  wall 0.09 s
  122   -1270.2711241170      3.89E+04 Line search: overstep
 J construction time:  CPU 0.10 s  wall 0.10 s
  123   -1270.2711241170      3.89E+04 Line search: overstep
 J construction time:  CPU 0.09 s  wall 0.10 s
  124   -1270.2711241170      3.89E+04 Line search: overstep
 J construction time:  CPU 0.09 s  wall 0.09 s
  125   -1270.2711241170      3.89E+04 Line search: overstep
 J construction time:  CPU 0.10 s  wall 0.10 s
  126   -1270.2711241170      3.89E+04 Line search: overstep
 J construction time:  CPU 0.09 s  wall 0.09 s
  127   -1270.2711241170      3.89E+04 Line search: overstep
 J construction time:  CPU 0.09 s  wall 0.09 s
  128   -1270.2711241170      3.89E+04 Line search: overstep
 J construction time:  CPU 0.09 s  wall 0.09 s
  129   -1270.2711241170      3.89E+04 Line search: overstep
 J construction time:  CPU 0.09 s  wall 0.09 s
  130   -1270.2711241170      3.89E+04 Line search: overstep
 J construction time:  CPU 0.09 s  wall 0.09 s
  131   -1270.2711241170      3.89E+04 Line search: overstep
 J construction time:  CPU 0.09 s  wall 0.09 s
  132   -1270.2711241170      3.89E+04 Line search: overstep
 J construction time:  CPU 0.09 s  wall 0.09 s
  133   -1270.2711241170      3.89E+04 Line search: overstep
 J construction time:  CPU 0.09 s  wall 0.09 s
  134   -1270.2711241170      3.89E+04 Line search: overstep
 J construction time:  CPU 0.09 s  wall 0.09 s
  135   -1270.2711241170      3.89E+04 Line search: overstep
 J construction time:  CPU 3.64 s  wall 3.65 s
  136   -1270.2711241170      3.89E+04 Line search: overstep
 J construction time:  CPU 0.10 s  wall 0.10 s
  137   -1270.2711241170      3.89E+04 Line search: overstep
 J construction time:  CPU 0.10 s  wall 0.10 s
  138   -1270.2711241170      3.89E+04 Line search: overstep
 J construction time:  CPU 0.09 s  wall 0.09 s
  139   -1270.2711241170      3.89E+04 Line search: overstep
 J construction time:  CPU 0.09 s  wall 0.09 s
  140   -1270.2711241170      3.89E+04 Line search: overstep
 J construction time:  CPU 0.09 s  wall 0.09 s
  141   -1270.2711241170      3.89E+04 Line search: overstep
 J construction time:  CPU 0.08 s  wall 0.08 s
  142   -1270.2711241170      3.89E+04 Line search: overstep
 J construction time:  CPU 0.08 s  wall 0.08 s
  143   -1270.2711241170      3.89E+04 Line search: overstep
 J construction time:  CPU 0.09 s  wall 0.09 s
  144   -1270.2711241170      3.89E+04 Line search: overstep
 J construction time:  CPU 0.09 s  wall 0.09 s
  145   -1270.2711241170      3.89E+04 Line search: overstep
 J construction time:  CPU 0.08 s  wall 0.08 s
  146   -1270.2711241170      3.89E+04 Line search: overstep
 J construction time:  CPU 0.08 s  wall 0.08 s
  147   -1270.2711241170      3.89E+04 Line search: overstep
 J construction time:  CPU 0.08 s  wall 0.08 s
  148   -1270.2711241170      3.89E+04 Line search: overstep
 J construction time:  CPU 0.08 s  wall 0.08 s
  149   -1270.2711241170      3.89E+04 Line search: overstep
 J construction time:  CPU 0.08 s  wall 0.08 s
  150   -1270.2711241170      3.89E+04 Line search: overstep
 J construction time:  CPU 3.69 s  wall 3.69 s
  151   -1270.2711241170      3.89E+04 Line search: overstep
 J construction time:  CPU 0.09 s  wall 0.09 s
  152   -1270.2711241170      3.89E+04 Line search: overstep
 J construction time:  CPU 0.09 s  wall 0.09 s
  153   -1270.2711241170      3.89E+04 Line search: overstep
 J construction time:  CPU 0.10 s  wall 0.10 s
  154   -1270.2711241170      3.89E+04 Line search: overstep
 J construction time:  CPU 0.08 s  wall 0.08 s
  155   -1270.2711241170      3.89E+04 Line search: overstep
 J construction time:  CPU 0.08 s  wall 0.08 s
  156   -1270.2711241170      3.89E+04 Line search: overstep
 J construction time:  CPU 0.08 s  wall 0.08 s
  157   -1270.2711241170      3.89E+04 Line search: overstep
 J construction time:  CPU 0.08 s  wall 0.08 s
  158   -1270.2711241170      3.89E+04 Line search: overstep
 J construction time:  CPU 0.09 s  wall 0.09 s
  159   -1270.2711241170      3.89E+04 Line search: overstep
 J construction time:  CPU 0.08 s  wall 0.08 s
  160   -1270.2711241170      3.89E+04 Line search: overstep
 J construction time:  CPU 0.09 s  wall 0.09 s
  161   -1270.2711241170      3.89E+04 Line search: overstep
 J construction time:  CPU 0.10 s  wall 0.10 s
  162   -1270.2711241170      3.89E+04 Line search: overstep
 J construction time:  CPU 0.09 s  wall 0.09 s
  163   -1270.2711241170      3.89E+04 Line search: overstep
 J construction time:  CPU 0.09 s  wall 0.09 s
  164   -1270.2711241170      3.89E+04 Line search: overstep
 J construction time:  CPU 0.09 s  wall 0.09 s
  165   -1270.2711241170      3.89E+04 Line search: overstep
 J construction time:  CPU 3.60 s  wall 3.61 s
  166   -1270.2711241170      3.89E+04 Line search: overstep
 J construction time:  CPU 0.08 s  wall 0.08 s
  167   -1270.2711241170      3.89E+04 Line search: overstep
 J construction time:  CPU 0.09 s  wall 0.09 s
  168   -1270.2711241170      3.89E+04 Line search: overstep
 J construction time:  CPU 0.10 s  wall 0.10 s
  169   -1270.2711241170      3.89E+04 Line search: overstep
 J construction time:  CPU 0.11 s  wall 0.11 s
  170   -1270.2711241170      3.89E+04 Line search: overstep
 J construction time:  CPU 0.09 s  wall 0.09 s
  171   -1270.2711241170      3.89E+04 Line search: overstep
 J construction time:  CPU 0.09 s  wall 0.09 s
  172   -1270.2711241170      3.89E+04 Line search: overstep
 J construction time:  CPU 0.08 s  wall 0.08 s
  173   -1270.2711241170      3.89E+04 Line search: overstep
 J construction time:  CPU 0.08 s  wall 0.08 s
  174   -1270.2711241170      3.89E+04 Line search: overstep
 J construction time:  CPU 0.08 s  wall 0.08 s
  175   -1270.2711241170      3.89E+04 Line search: overstep
 J construction time:  CPU 0.10 s  wall 0.10 s
  176   -1270.2711241170      3.89E+04 Line search: overstep
 J construction time:  CPU 0.08 s  wall 0.08 s
  177   -1270.2711241170      3.89E+04 Line search: overstep
 J construction time:  CPU 0.09 s  wall 0.09 s
  178   -1270.2711241170      3.89E+04 Line search: overstep
 J construction time:  CPU 0.08 s  wall 0.08 s
  179   -1270.2711241170      3.89E+04 Line search: overstep
 J construction time:  CPU 0.09 s  wall 0.09 s
  180   -1270.2711241170      3.89E+04 Line search: overstep
 J construction time:  CPU 3.38 s  wall 3.39 s
  181   -1270.2711241170      3.89E+04 Line search: overstep
 J construction time:  CPU 0.08 s  wall 0.08 s
  182   -1270.2711241170      3.89E+04 Line search: overstep
 J construction time:  CPU 0.09 s  wall 0.09 s
  183   -1270.2711241170      3.89E+04 Line search: overstep
 J construction time:  CPU 0.08 s  wall 0.08 s
  184   -1270.2711241170      3.89E+04 Line search: overstep
 J construction time:  CPU 0.09 s  wall 0.09 s
  185   -1270.2711241170      3.89E+04 Line search: overstep
 J construction time:  CPU 0.08 s  wall 0.08 s
  186   -1270.2711241170      3.89E+04 Line search: overstep
 J construction time:  CPU 0.10 s  wall 0.10 s
  187   -1270.2711241170      3.89E+04 Line search: overstep
 J construction time:  CPU 0.09 s  wall 0.09 s
  188   -1270.2711241170      3.89E+04 Line search: overstep
 J construction time:  CPU 0.09 s  wall 0.09 s
  189   -1270.2711241170      3.89E+04 Line search: overstep
 J construction time:  CPU 0.09 s  wall 0.09 s
  190   -1270.2711241170      3.89E+04 Line search: overstep
 J construction time:  CPU 0.10 s  wall 0.10 s
  191   -1270.2711241170      3.89E+04 Line search: overstep
 J construction time:  CPU 0.09 s  wall 0.09 s
  192   -1270.2711241170      3.89E+04 Line search: overstep
 J construction time:  CPU 0.08 s  wall 0.08 s
  193   -1270.2711241170      3.89E+04 Line search: overstep
 J construction time:  CPU 0.09 s  wall 0.09 s
  194   -1270.2711241170      3.89E+04 Line search: overstep
 J construction time:  CPU 0.08 s  wall 0.08 s
  195                nan           NAN Convergence criterion met
 ---------------------------------------
 SCF time:  CPU 649.54 s  wall 653.17 s
 SCF   energy in the final basis set = nan
 Total energy in the final basis set = nan
 Analysis of SCF Wavefunction
 
 --------------------------------------------------------------
 
                    Orbital Energies (a.u.)
 --------------------------------------------------------------
 
 Alpha MOs
 -- Occupied --
    NaN     NaN     NaN     NaN     NaN     NaN     NaN     NaN
    NaN     NaN     NaN     NaN     NaN     NaN     NaN     NaN
    NaN     NaN     NaN     NaN     NaN     NaN     NaN     NaN
    NaN     NaN     NaN     NaN     NaN     NaN     NaN     NaN
    NaN     NaN     NaN     NaN     NaN     NaN     NaN     NaN
    NaN     NaN     NaN     NaN     NaN     NaN     NaN     NaN
    NaN     NaN     NaN     NaN     NaN     NaN     NaN     NaN
    NaN     NaN     NaN     NaN     NaN     NaN     NaN     NaN
    NaN     NaN     NaN     NaN     NaN     NaN     NaN     NaN
    NaN     NaN     NaN     NaN     NaN     NaN     NaN     NaN
    NaN     NaN     NaN     NaN     NaN     NaN     NaN     NaN
    NaN     NaN
 -- Virtual --
    NaN     NaN     NaN     NaN     NaN     NaN     NaN     NaN
    NaN     NaN     NaN     NaN     NaN     NaN     NaN     NaN
    NaN     NaN     NaN     NaN     NaN     NaN     NaN     NaN
    NaN     NaN     NaN     NaN     NaN     NaN     NaN     NaN
    NaN     NaN     NaN     NaN     NaN     NaN     NaN     NaN
    NaN     NaN     NaN     NaN     NaN     NaN     NaN     NaN
    NaN     NaN     NaN     NaN     NaN     NaN     NaN     NaN
    NaN     NaN     NaN     NaN     NaN     NaN     NaN     NaN
    NaN     NaN     NaN     NaN     NaN     NaN     NaN     NaN
    NaN     NaN     NaN     NaN     NaN     NaN     NaN     NaN
    NaN     NaN     NaN     NaN     NaN     NaN     NaN     NaN
    NaN     NaN     NaN     NaN     NaN     NaN     NaN     NaN
    NaN     NaN     NaN     NaN     NaN     NaN     NaN     NaN
    NaN     NaN     NaN     NaN     NaN     NaN     NaN     NaN
    NaN     NaN     NaN     NaN     NaN     NaN     NaN     NaN
    NaN     NaN     NaN     NaN     NaN     NaN     NaN     NaN
    NaN     NaN     NaN     NaN     NaN     NaN     NaN     NaN
    NaN     NaN     NaN     NaN     NaN     NaN     NaN     NaN
    NaN     NaN     NaN     NaN     NaN     NaN     NaN     NaN
    NaN     NaN     NaN     NaN     NaN     NaN     NaN     NaN
    NaN     NaN     NaN     NaN     NaN     NaN     NaN     NaN
    NaN     NaN     NaN     NaN     NaN     NaN     NaN     NaN
    NaN     NaN     NaN     NaN     NaN     NaN     NaN     NaN
    NaN     NaN     NaN     NaN     NaN     NaN     NaN     NaN
    NaN     NaN     NaN     NaN     NaN     NaN     NaN     NaN
    NaN     NaN     NaN     NaN     NaN     NaN     NaN     NaN
    NaN     NaN     NaN     NaN     NaN     NaN     NaN     NaN
    NaN     NaN     NaN     NaN     NaN     NaN     NaN     NaN
    NaN     NaN     NaN     NaN     NaN     NaN     NaN     NaN
    NaN     NaN     NaN     NaN     NaN     NaN     NaN     NaN
    NaN     NaN     NaN     NaN     NaN     NaN     NaN     NaN
    NaN     NaN     NaN     NaN     NaN     NaN     NaN     NaN
    NaN     NaN     NaN     NaN     NaN     NaN     NaN     NaN
    NaN     NaN     NaN     NaN     NaN     NaN     NaN     NaN
    NaN     NaN     NaN     NaN     NaN     NaN     NaN     NaN
    NaN     NaN     NaN     NaN     NaN     NaN     NaN     NaN
    NaN     NaN
 --------------------------------------------------------------
 
          Ground-State Mulliken Net Atomic Charges

     Atom                 Charge (a.u.)
  ----------------------------------------
      1 C                          NaN
      2 C                          NaN
      3 O                          NaN
      4 C                          NaN
      5 C                          NaN
      6 O                          NaN
      7 C                          NaN
      8 C                          NaN
      9 O                          NaN
     10 C                          NaN
     11 C                          NaN
     12 O                          NaN
     13 C                          NaN
     14 C                          NaN
     15 O                          NaN
     16 C                          NaN
     17 C                          NaN
     18 O                          NaN
     19 C                          NaN
     20 C                          NaN
     21 O                          NaN
     22 H                          NaN
     23 H                          NaN
     24 H                          NaN
     25 H                          NaN
     26 H                          NaN
     27 H                          NaN
     28 H                          NaN
     29 H                          NaN
     30 H                          NaN
     31 H                          NaN
     32 H                          NaN
     33 H                          NaN
     34 H                          NaN
     35 H                          NaN
     36 H                          NaN
     37 H                          NaN
     38 H                          NaN
     39 H                          NaN
     40 H                          NaN
     41 H                          NaN
     42 H                          NaN
     43 H                          NaN
     44 H                          NaN
     45 H                          NaN
     46 H                          NaN
     47 H                          NaN
     48 H                          NaN
     49 H                          NaN
     50 H                          NaN
     51 H                          NaN
     52 Mg                         NaN
  ----------------------------------------
  Sum of atomic charges =          NaN

 -----------------------------------------------------------------
                    Cartesian Multipole Moments
 -----------------------------------------------------------------
    Charge (ESU x 10^10)
                    NaN
    Dipole Moment (Debye)
         X          NaN      Y          NaN      Z          NaN
       Tot          NaN
    Quadrupole Moments (Debye-Ang)
        XX          NaN     XY          NaN     YY          NaN
        XZ          NaN     YZ          NaN     ZZ          NaN
    Octopole Moments (Debye-Ang^2)
       XXX          NaN    XXY          NaN    XYY          NaN
       YYY          NaN    XXZ          NaN    XYZ          NaN
       YYZ          NaN    XZZ          NaN    YZZ          NaN
       ZZZ          NaN
    Hexadecapole Moments (Debye-Ang^3)
      XXXX          NaN   XXXY          NaN   XXYY          NaN
      XYYY          NaN   YYYY          NaN   XXXZ          NaN
      XXYZ          NaN   XYYZ          NaN   YYYZ          NaN
      XXZZ          NaN   XYZZ          NaN   YYZZ          NaN
      XZZZ          NaN   YZZZ          NaN   ZZZZ          NaN
 -----------------------------------------------------------------
 Calculating analytic gradient of the SCF energy
         cpu   0.11 wall   0.11
 Gradient of AOints
            1           2           3           4           5           6
    1         nan         nan         nan         nan         nan         nan
    2         nan         nan         nan         nan         nan         nan
    3         nan         nan         nan         nan         nan         nan
            7           8           9          10          11          12
    1         nan         nan         nan         nan         nan         nan
    2         nan         nan         nan         nan         nan         nan
    3         nan         nan         nan         nan         nan         nan
           13          14          15          16          17          18
    1         nan         nan         nan         nan         nan         nan
    2         nan         nan         nan         nan         nan         nan
    3         nan         nan         nan         nan         nan         nan
           19          20          21          22          23          24
    1         nan         nan         nan         nan         nan         nan
    2         nan         nan         nan         nan         nan         nan
    3         nan         nan         nan         nan         nan         nan
           25          26          27          28          29          30
    1         nan         nan         nan         nan         nan         nan
    2         nan         nan         nan         nan         nan         nan
    3         nan         nan         nan         nan         nan         nan
           31          32          33          34          35          36
    1         nan         nan         nan         nan         nan         nan
    2         nan         nan         nan         nan         nan         nan
    3         nan         nan         nan         nan         nan         nan
           37          38          39          40          41          42
    1         nan         nan         nan         nan         nan         nan
    2         nan         nan         nan         nan         nan         nan
    3         nan         nan         nan         nan         nan         nan
           43          44          45          46          47          48
    1         nan         nan         nan         nan         nan         nan
    2         nan         nan         nan         nan         nan         nan
    3         nan         nan         nan         nan         nan         nan
           49          50          51          52
    1         nan         nan         nan         nan
    2         nan         nan         nan         nan
    3         nan         nan         nan         nan
 J construction time:  CPU 1.67 s  wall 1.67 s
 Inaccurate integrated density:
   Number of electrons =   180
   Numerical integral  =     0.000000000000
   Relative error      =  -100.0000000000 %
 Gradient of SCF Energy
            1           2           3           4           5           6
    1         nan         nan         nan         nan         nan         nan
    2         nan         nan         nan         nan         nan         nan
    3         nan         nan         nan         nan         nan         nan
            7           8           9          10          11          12
    1         nan         nan         nan         nan         nan         nan
    2         nan         nan         nan         nan         nan         nan
    3         nan         nan         nan         nan         nan         nan
           13          14          15          16          17          18
    1         nan         nan         nan         nan         nan         nan
    2         nan         nan         nan         nan         nan         nan
    3         nan         nan         nan         nan         nan         nan
           19          20          21          22          23          24
    1         nan         nan         nan         nan         nan         nan
    2         nan         nan         nan         nan         nan         nan
    3         nan         nan         nan         nan         nan         nan
           25          26          27          28          29          30
    1         nan         nan         nan         nan         nan         nan
    2         nan         nan         nan         nan         nan         nan
    3         nan         nan         nan         nan         nan         nan
           31          32          33          34          35          36
    1         nan         nan         nan         nan         nan         nan
    2         nan         nan         nan         nan         nan         nan
    3         nan         nan         nan         nan         nan         nan
           37          38          39          40          41          42
    1         nan         nan         nan         nan         nan         nan
    2         nan         nan         nan         nan         nan         nan
    3         nan         nan         nan         nan         nan         nan
           43          44          45          46          47          48
    1         nan         nan         nan         nan         nan         nan
    2         nan         nan         nan         nan         nan         nan
    3         nan         nan         nan         nan         nan         nan
           49          50          51          52
    1         nan         nan         nan         nan
    2         nan         nan         nan         nan
    3         nan         nan         nan         nan
 Max gradient component =             NAN
 RMS gradient           =             NAN
 Gradient time:  CPU 3.95 s  wall 3.98 s
 Geometry Optimization Parameters
   NAtoms,    NIC,     NZ,  NCons,   NDum,   NFix, NCnnct, MaxDiis
       52     372       0       0       0       0       0       0


** GEOMETRY OPTIMIZATION IN DELOCALIZED INTERNAL COORDINATES **
   Searching for a Minimum

   Optimization Cycle:   1

                       Coordinates (Angstroms)
     ATOM                X               Y               Z
      1  C         4.5590197059   -0.2687718638   -0.0850928990
      2  C         3.3769763975    0.6836792545    0.0236058809
      3  O         2.1977857235   -0.0973454638   -0.0017772974
      4  C         1.0142185466    0.6767025823   -0.0100556182
      5  C        -0.1609585611   -0.2857290390    0.0800981392
      6  O        -1.3480665267    0.4783134803   -0.0078155334
      7  C        -2.5214071747   -0.3041829717    0.0969545352
      8  C        -3.7122301816    0.6278057728   -0.0720433826
      9  O        -4.8849227660   -0.1529318163    0.0547116472
     10  C        -6.0739407111    0.5996259396   -0.0873981201
     11  C        -7.2442103479   -0.3553668904    0.0962268525
     12  O        -8.4353839570    0.3915774256   -0.0590264510
     13  C        -9.6068169063   -0.3856488229    0.0903442765
     14  C       -10.8147974943    0.5297395383   -0.0936591252
     15  O         5.7391040322    0.5009770464    0.0338775964
     16  C         6.9205371389   -0.2644201253   -0.1091246645
     17  C         8.1029679879    0.6662311809    0.1167753425
     18  O         9.2822032705   -0.0905110225   -0.0640076724
     19  C        10.4661311746    0.6667108696    0.1258517586
     20  C        11.6619694823   -0.2388341240   -0.1180197615
     21  O       -12.0356209848   -0.1820291634    0.0572322250
     22  H         4.5248423769   -0.7977036915   -1.0509838486
     23  H         4.4982577077   -1.0273440989    0.7120000408
     24  H         3.3965889169    1.4007217009   -0.8127342931
     25  H         3.4506682372    1.2606690860    0.9593355740
     26  H         0.9360511722    1.2731619504   -0.9331945362
     27  H         0.9908798061    1.3762131507    0.8410889400
     28  H        -0.1163338795   -0.8418723323    1.0300656861
     29  H        -0.1022907581   -1.0209125099   -0.7387819105
     30  H        -2.5775011274   -0.8065353204    1.0759810262
     31  H        -2.5467063025   -1.0854193147   -0.6797257260
     32  H        -3.6660524770    1.1172511283   -1.0580300183
     33  H        -3.6787266665    1.4187197223    0.6944042221
     34  H        -6.1293981828    1.0704325259   -1.0820227173
     35  H        -6.1260258661    1.4030484059    0.6647255756
     36  H        -7.1940114285   -0.8191557986    1.0942438854
     37  H        -7.1848494381   -1.1641600689   -0.6500492548
     38  H        -9.6486818706   -0.8578808617    1.0849127801
     39  H        -9.6312661400   -1.1973895901   -0.6601612947
     40  H       -10.7470553848    1.0367251664   -1.0679189377
     41  H       -10.8107103345    1.3018598515    0.6810411406
     42  H         6.9845520539   -0.7102647551   -1.1146096464
     43  H         6.9491572765   -1.0880255417    0.6222809619
     44  H         8.0529690052    1.0914102944    1.1326113168
     45  H         8.0556880936    1.5060162412   -0.5960738301
     46  H        10.4920518165    1.0784842283    1.1493009791
     47  H        10.4803603485    1.5245822902   -0.5681548951
     48  H        11.6520864105   -1.0838526991    0.5781214463
     49  H        12.5963842051    0.3158383397    0.0214694290
     50  H        11.6413700964   -0.6350862284   -1.1383751870
     51  H       -12.1272981091   -0.7757340272   -0.7038250383
     52  Mg        2.3049546474   -2.0944540784    0.0067268940
   Point Group: c1    Number of degrees of freedom:   150


   Energy is              NaN


 Attempting to Generate Delocalized Internal Coordinates
 GETINT wrote B to file, NVib is          150
 calling HSSCONV
 HCONV 3*NATOMS:          156
 wrote HINT to file
  writing hessian 

  ***ERROR*** Hessian Appears to have all zero or negative eigenvalues

 Q-Chem fatal error occurred in module 0, line    9:

 OPTIMIZE fatal error

Reading symbols from /usr/local/bin/qchem4/exe/qcprog.exe...(no debugging symbols found)...done.
Attaching to program: /usr/local/bin/qchem4/exe/qcprog.exe, process 57871
0x00007fff8bef591a in wait4 () from /usr/lib/system/libsystem_kernel.dylib
(gdb) #0  0x00007fff8bef591a in wait4 () from /usr/lib/system/libsystem_kernel.dylib
#1  0x00007fff9517c228 in system () from /usr/lib/system/libsystem_c.dylib
#2  0x0000000116ecedb1 in QTraceback() ()
#3  0x0000000116ece899 in qkill_ ()
#4  0x0000000116edf1e6 in qcrashloc_ ()
#5  0x0000000114d096f6 in optexit_ ()
#6  0x0000000114d07c86 in chkhes_ ()
#7  0x000000010d1455b2 in optint_ ()
#8  0x000000010d143ca7 in optimize_ ()
#9  0x000000010d1161ae in optmain_ ()
#10 0x000000010d112668 in optgeom_ ()
#11 0x000000010d1184f3 in OptMan() ()
#12 0x000000010d145b06 in optman_main() ()
#13 0x000000010c65da4e in qrun(char const*) ()
#14 0x000000010c65be49 in ProgMan(std::basic_ifstream<char, std::char_traits<char> >&) ()
#15 0x000000010c65794e in main ()
(gdb) A debugging session is active.

	Inferior 1 [process 57871] will be detached.

Quit anyway? (y or n) [answered Y; input not from terminal]
Detaching from program: /usr/local/bin/qchem4/exe/qcprog.exe, process 57871
