
Running Job 1 of 1 PEO7Mg_geo_1A2.in
qchem PEO7Mg_geo_1A2.in_26243.0 /usr/local/bin/qscratch/qchem26243/ 1
                  Welcome to Q-Chem
     A Quantum Leap Into The Future Of Chemistry


 Q-Chem 4.2, Q-Chem, Inc., Pleasanton, CA (2014).

 Y. Shao,  Z. Gan,  E. Epifanovsky,  A. T. B. Gilbert,  M. Wormit,  
 J. Kussmann,  A. W. Lange,  A. Behn,  J. Deng,  X. Feng,  D. Ghosh,  
 M. Goldey,  P. R. Horn,  L. D. Jacobson,  I. Kaliman,  R. Z. Khaliullin,  
 T. Kus,  A. Landau,  J. Liu,  E. I. Proynov,  Y. M. Rhee,  R. M. Richard,  
 M. A. Rohrdanz,  R. P. Steele,  E. J. Sundstrom,  H. L. Woodcock III,  
 P. M. Zimmerman,  D. Zuev,  B. Albrecht,  E. Alguire,  B. Austin,  
 G. J. O. Beran,  Y. A. Bernard,  E. Berquist,  K. Brandhorst,  
 K. B. Bravaya,  S. T. Brown,  D. Casanova,  C.-M. Chang,  Y. Chen,  
 S. H. Chien,  K. D. Closser,  D. L. Crittenden,  M. Diedenhofen,  
 R. A. DiStasio Jr.,  H. Do,  A. D. Dutoi,  R. G. Edgar,  S. Fatehi,  
 L. Fusti-Molnar,  A. Ghysels,  A. Golubeva-Zadorozhnaya,  J. Gomes,  
 M. W. D. Hanson-Heine,  P. H. P. Harbach,  A. W. Hauser,  E. G. Hohenstein,  
 Z. C. Holden,  T.-C. Jagau,  H. Ji,  B. Kaduk,  K. Khistyaev,  Jaehoon Kim,  
 Jihan Kim,  R. A. King,  P. Klunzinger,  D. Kosenkov,  T. Kowalczyk,  
 C. M. Krauter,  K. U. Lao,  A. Laurent,  K. V. Lawler,  S. V. Levchenko,  
 C. Y. Lin,  F. Liu,  E. Livshits,  R. C. Lochan,  A. Luenser,  P. Manohar,  
 S. F. Manzer,  S.-P. Mao,  N. Mardirossian,  A. V. Marenich,  S. A. Maurer,  
 N. J. Mayhall,  C. M. Oana,  R. Olivares-Amaya,  D. P. O'Neill,  
 J. A. Parkhill,  T. M. Perrine,  R. Peverati,  P. A. Pieniazek,  A. Prociuk,  
 D. R. Rehn,  E. Rosta,  N. J. Russ,  N. Sergueev,  S. M. Sharada,  
 S. Sharma,  D. W. Small,  A. Sodt,  T. Stein,  D. Stuck,  Y.-C. Su,  
 A. J. W. Thom,  T. Tsuchimochi,  L. Vogt,  O. Vydrov,  T. Wang,  
 M. A. Watson,  J. Wenzel,  A. White,  C. F. Williams,  V. Vanovschi,  
 S. Yeganeh,  S. R. Yost,  Z.-Q. You,  I. Y. Zhang,  X. Zhang,  Y. Zhao,  
 B. R. Brooks,  G. K. L. Chan,  D. M. Chipman,  C. J. Cramer,  
 W. A. Goddard III,  M. S. Gordon,  W. J. Hehre,  A. Klamt,  
 H. F. Schaefer III,  M. W. Schmidt,  C. D. Sherrill,  D. G. Truhlar,  
 A. Warshel,  X. Xu,  A. Aspuru-Guzik,  R. Baer,  A. T. Bell,  N. A. Besley,  
 J.-D. Chai,  A. Dreuw,  B. D. Dunietz,  T. R. Furlani,  S. R. Gwaltney,  
 C.-P. Hsu,  Y. Jung,  J. Kong,  D. S. Lambrecht,  W. Liang,  C. Ochsenfeld,  
 V. A. Rassolov,  L. V. Slipchenko,  J. E. Subotnik,  T. Van Voorhis,  
 J. M. Herbert,  A. I. Krylov,  P. M. W. Gill,  M. Head-Gordon

 Contributors to earlier versions of Q-Chem not listed above: 
 R. D. Adamson,  J. Baker,  E. F. C. Byrd,  A. K. Chakraborty,  C.-L. Cheng,  
 H. Dachsel,  R. J. Doerksen,  G. Hawkins,  A. Heyden,  S. Hirata,  
 G. Kedziora,  F. J. Keil,  C. Kelley,  P. P. Korambath,  W. Kurlancheek,  
 A. M. Lee,  M. S. Lee,  D. Liotard,  I. Lotan,  P. E. Maslen,  N. Nair,  
 D. Neuhauser,  R. Olson,  B. Peters,  J. Ritchie,  N. E. Schultz,  
 N. Shenvi,  A. C. Simmonett,  K. S. Thanthiriwatte,  Q. Wu,  W. Zhang

 Q-Chem 4.2.0.0  for Mac (Intel) OS X

 Parts of Q-Chem use Armadillo 4.100.2 (Dirt Cruiser).
 http://arma.sourceforge.net/

 Q-Chem begins on Thu Jul 16 10:05:20 2015  

Host: 
0

     Scratch files written to /usr/local/bin/qscratch/qchem26243//
 Dec114 28887_epif 4730   
Processing $rem in /usr/local/bin/qchem4/config/preferences.
 MEM_TOTAL  6000 
Checking the input file for consistency...	...done.

--------------------------------------------------------------
User input:
--------------------------------------------------------------
$molecule
2 1
C    4.7145270   -0.4008941   -0.0391365
C    3.5383092    0.5625805    0.0274467
O    2.3541393   -0.2112903    0.0270052
C    1.1757183    0.5694072   -0.0164175
C   -0.0061121   -0.3812919    0.1056140
O   -1.1878055    0.3863528   -0.0170132
C   -2.3666809   -0.3839961    0.1126830
C   -3.5506480    0.5483561   -0.0974694
O   -4.7289560   -0.2193898    0.0541301
C   -5.9124074    0.5346967   -0.1222172
C   -7.0896736   -0.4049884    0.0929494
O   -8.2752623    0.3429948   -0.0963243
C   -9.4523825   -0.4203765    0.0777438
C  -10.6535526    0.4949178   -0.1468379
O    5.8991242    0.3653206    0.0552610
C    7.0761022   -0.4125654   -0.0528261
C    8.2636526    0.5185456    0.1422168
O    9.4386480   -0.2521381   -0.0039665
C   10.6267093    0.5042742    0.1617672
C   11.8175960   -0.4176423   -0.0416367
O  -11.8796390   -0.2026718    0.0260024
H    4.6809321   -0.9665293   -0.9840230
H    4.6454507   -1.1276915    0.7863785
H    3.5661295    1.2466262   -0.8358649
H    3.6118590    1.1748187    0.9405144
H    1.1053349    1.1302328   -0.9622400
H    1.1533985    1.3014233    0.8069664
H    0.0308815   -0.9005812    1.0765389
H    0.0511665   -1.1479324   -0.6839952
H   -2.4301720   -0.8477691    1.1101201
H   -2.3938456   -1.1944867   -0.6333529
H   -3.4971283    0.9990264   -1.1014070
H   -3.5151728    1.3680690    0.6380043
H   -5.9606058    0.9670582   -1.1345180
H   -5.9623762    1.3669019    0.5980801
H   -7.0467018   -0.8301729    1.1083457
H   -7.0324890   -1.2423807   -0.6212650
H   -9.5015127   -0.8535426    1.0896112
H   -9.4790071   -1.2603420   -0.6409554
H  -10.5784033    0.9634303   -1.1396391
H  -10.6476507    1.2963584    0.5974773
H    7.1414074   -0.8973348   -1.0400491
H    7.0962543   -1.2074558    0.7099598
H    8.2121840    0.9829758    1.1406433
H    8.2248696    1.3304396   -0.6027344
H   10.6510382    0.9551180    1.1686562
H   10.6494731    1.3345758   -0.5647809
H   11.7992535   -1.2350462    0.6865673
H   12.7550347    0.1360239    0.0804783
H   11.7986770   -0.8528912   -1.0460100
H  -11.9720155   -0.8247469   -0.7119593
Mg    2.4481738   -2.2072224    0.1131033
$end

$rem
BASIS  =  3-21++G
DFT_D  =  EMPIRICAL_GRIMME3
dft_d3_3body = True
dft_d3_rs6 = 1094
dft_d3_s6 = 1000
dft_d3_s8 = 1682
JOB_TYPE  =  Optimization
METHOD  =  BLYP
geom_opt_max_cycles = 250
MAX_SCF_CYCLES = 300
SCF_ALGORITHM = diis
SCF_CONVERGENCE = 7
THRESH = 12
$end
--------------------------------------------------------------
 ----------------------------------------------------------------
             Standard Nuclear Orientation (Angstroms)
    I     Atom           X                Y                Z
 ----------------------------------------------------------------
    1      C       4.5590197059    -0.2687718638    -0.0850928990
    2      C       3.3769763975     0.6836792545     0.0236058809
    3      O       2.1977857235    -0.0973454638    -0.0017772974
    4      C       1.0142185466     0.6767025823    -0.0100556182
    5      C      -0.1609585611    -0.2857290390     0.0800981392
    6      O      -1.3480665267     0.4783134803    -0.0078155334
    7      C      -2.5214071747    -0.3041829717     0.0969545352
    8      C      -3.7122301816     0.6278057728    -0.0720433826
    9      O      -4.8849227660    -0.1529318163     0.0547116472
   10      C      -6.0739407111     0.5996259396    -0.0873981201
   11      C      -7.2442103479    -0.3553668904     0.0962268525
   12      O      -8.4353839570     0.3915774256    -0.0590264510
   13      C      -9.6068169063    -0.3856488229     0.0903442765
   14      C     -10.8147974943     0.5297395383    -0.0936591252
   15      O       5.7391040322     0.5009770464     0.0338775964
   16      C       6.9205371389    -0.2644201253    -0.1091246645
   17      C       8.1029679879     0.6662311809     0.1167753425
   18      O       9.2822032705    -0.0905110225    -0.0640076724
   19      C      10.4661311746     0.6667108696     0.1258517586
   20      C      11.6619694823    -0.2388341240    -0.1180197615
   21      O     -12.0356209848    -0.1820291634     0.0572322250
   22      H       4.5248423769    -0.7977036915    -1.0509838486
   23      H       4.4982577077    -1.0273440989     0.7120000408
   24      H       3.3965889169     1.4007217009    -0.8127342931
   25      H       3.4506682372     1.2606690860     0.9593355740
   26      H       0.9360511722     1.2731619504    -0.9331945362
   27      H       0.9908798061     1.3762131507     0.8410889400
   28      H      -0.1163338795    -0.8418723323     1.0300656861
   29      H      -0.1022907581    -1.0209125099    -0.7387819105
   30      H      -2.5775011274    -0.8065353204     1.0759810262
   31      H      -2.5467063025    -1.0854193147    -0.6797257260
   32      H      -3.6660524770     1.1172511283    -1.0580300183
   33      H      -3.6787266665     1.4187197223     0.6944042221
   34      H      -6.1293981828     1.0704325259    -1.0820227173
   35      H      -6.1260258661     1.4030484059     0.6647255756
   36      H      -7.1940114285    -0.8191557986     1.0942438854
   37      H      -7.1848494381    -1.1641600689    -0.6500492548
   38      H      -9.6486818706    -0.8578808617     1.0849127801
   39      H      -9.6312661400    -1.1973895901    -0.6601612947
   40      H     -10.7470553848     1.0367251664    -1.0679189377
   41      H     -10.8107103345     1.3018598515     0.6810411406
   42      H       6.9845520539    -0.7102647551    -1.1146096464
   43      H       6.9491572765    -1.0880255417     0.6222809619
   44      H       8.0529690052     1.0914102944     1.1326113168
   45      H       8.0556880936     1.5060162412    -0.5960738301
   46      H      10.4920518165     1.0784842283     1.1493009791
   47      H      10.4803603485     1.5245822902    -0.5681548951
   48      H      11.6520864105    -1.0838526991     0.5781214463
   49      H      12.5963842051     0.3158383397     0.0214694290
   50      H      11.6413700964    -0.6350862284    -1.1383751870
   51      H     -12.1272981091    -0.7757340272    -0.7038250383
   52      Mg      2.3049546474    -2.0944540784     0.0067268940
 ----------------------------------------------------------------
 Molecular Point Group                 C1    NOp =  1
 Largest Abelian Subgroup              C1    NOp =  1
 Nuclear Repulsion Energy =  1733.3090245071 hartrees
 There are       90 alpha and       90 beta electrons
 Requested basis set is 3-21++G
 There are 179 shells and 380 basis functions

Total QAlloc Memory Limit   6000 MB
Mega-Array Size        61 MB
MEM_STATIC part        62 MB
 A cutoff of  1.0D-12 yielded   9513 shell pairs
 There are     44409 function pairs
 
 -------------------------------------------------------
 OpenMP Integral Computing Module                       
 Release: version 1.0, May 2013, Q-Chem Inc. Pittsburgh 
 -------------------------------------------------------
 Integral Job Info:
 Integral job number is                      11
 Integral operator is                         1
 short-range coefficients               -999999
 long-range coefficients                -999999
 Omega coefficients                           0
 if combine SR and LR in K              -999999
 Integral screening is                        0
 Integral computing path is                   2
 max size of driver memory is            800000
 size of driver memory is                 45569
 size of scratch memory is               945100
 max col of scratch BK array                289
 max len of scratch array in speh3           22
 max len of scratch index in speh4            8
 max int batch size is                      520
 min int batch size is                       52
 fixed nKL is                                52
 max L of basis functions is                  1
 order of int derivative is                   0
 number of shells is                        179
 number of basis is                         380
 number of cartesian basis is               380
 number of contracted shell pairs          9513
 number of primitive shell pairs          17168
 maxK2 (contraction) of shell pair            9
 max number of K2 of shell pair               1
 max number of CS2 of shell pair           2115
 max number of PS2 of shell pair           3084
 mem total for path MDJ                   92266
 -------------------------------------------------------
         cpu   0.03 wall   0.03
 Smallest overlap matrix eigenvalue = 7.54E-06

  Scale SEOQF with 1.000000e-02/1.000000e-01/1.000000e-01

 Standard Electronic Orientation quadrupole field applied
 Nucleus-field energy     =     0.0000000378 hartrees
 Guess from superposition of atomic densities
 Warning:  Energy on first SCF cycle will be non-variational
 A restricted Kohn-Sham SCF calculation will be
 performed using Pulay DIIS extrapolation
 Exchange:  Becke88      Correlation:  LYP
 Using SG-1 standard quadrature grid
 SCF converges when DIIS error is below 1.0E-07
 Requested basis set is 3-21++G
 There are 179 shells and 380 basis functions
 A cutoff of  1.0D-12 yielded   9513 shell pairs
 There are     44409 function pairs
 J construction time:  CPU 0.55 s  wall 0.56 s
 Inaccurate integrated density:
   Number of electrons =   180
   Numerical integral  =   182.002761339962
   Relative error      =     1.1126451889 %
 ---------------------------------------
  Cycle       Energy         DIIS Error
 ---------------------------------------
    1   -1273.9462801566      3.85E-02
 J construction time:  CPU 3.81 s  wall 3.81 s
    2   -1269.8299578352      4.18E-03
 J construction time:  CPU 3.81 s  wall 3.82 s
    3   -1255.9727478153      1.61E-02
 J construction time:  CPU 3.80 s  wall 3.81 s
    4   -1269.8694500191      4.33E-03
 J construction time:  CPU 3.85 s  wall 3.86 s
    5   -1269.4363621997      4.44E-03
 J construction time:  CPU 3.77 s  wall 3.78 s
    6   -1269.4639698830      4.85E-03
 J construction time:  CPU 3.59 s  wall 3.59 s
    7   -1268.9040272490      6.18E-03
 J construction time:  CPU 3.47 s  wall 3.47 s
    8   -1270.1354753433      1.51E-03
 J construction time:  CPU 3.68 s  wall 3.68 s
    9   -1269.2169174639      4.68E-03
 J construction time:  CPU 3.40 s  wall 3.41 s
   10   -1269.4025043917      4.56E-03
 J construction time:  CPU 3.43 s  wall 3.43 s
   11   -1269.2897102437      5.03E-03
 J construction time:  CPU 3.28 s  wall 3.28 s
   12   -1269.4920721957      4.20E-03
 J construction time:  CPU 3.62 s  wall 3.63 s
   13   -1269.3957100508      4.37E-03
 J construction time:  CPU 3.29 s  wall 3.30 s
   14   -1269.4104472293      4.30E-03
 J construction time:  CPU 3.41 s  wall 3.42 s
   15   -1269.2284226787      4.65E-03
 J construction time:  CPU 3.76 s  wall 3.76 s
   16   -1269.4175328246      4.28E-03
 J construction time:  CPU 2.69 s  wall 2.69 s
   17   -1269.4166602847      4.28E-03
 J construction time:  CPU 3.17 s  wall 3.17 s
   18   -1269.4495056445      4.16E-03
 J construction time:  CPU 3.52 s  wall 3.52 s
   19   -1221.0669588787      2.94E-02
 J construction time:  CPU 3.52 s  wall 3.52 s
   20   -1269.0878802508      8.56E-03
 J construction time:  CPU 3.49 s  wall 3.49 s
   21   -1266.0132681739      9.37E-03
 J construction time:  CPU 3.47 s  wall 3.47 s
   22   -1269.9354478842      3.55E-03
 J construction time:  CPU 3.43 s  wall 3.43 s
   23   -1269.3090463225      5.14E-03
 J construction time:  CPU 3.31 s  wall 3.31 s
   24   -1268.9799667313      5.86E-03
 J construction time:  CPU 3.31 s  wall 3.31 s
   25   -1270.1004675186      2.03E-03
 J construction time:  CPU 3.40 s  wall 3.40 s
   26   -1269.4116782440      4.83E-03
 J construction time:  CPU 3.27 s  wall 3.27 s
   27   -1269.2316677080      4.66E-03
 J construction time:  CPU 3.26 s  wall 3.26 s
   28   -1269.4096371741      4.43E-03
 J construction time:  CPU 3.27 s  wall 3.27 s
   29   -1269.4643059423      4.03E-03
 J construction time:  CPU 3.26 s  wall 3.26 s
   30   -1269.4430289512      4.33E-03
 J construction time:  CPU 3.57 s  wall 3.57 s
   31   -1269.4086206971      4.41E-03
 J construction time:  CPU 3.19 s  wall 3.19 s
   32   -1269.4525998215      4.30E-03
 J construction time:  CPU 3.58 s  wall 3.59 s
   33   -1269.4412851454      4.18E-03
 J construction time:  CPU 3.10 s  wall 3.10 s
   34   -1269.4360858758      4.21E-03
 J construction time:  CPU 2.84 s  wall 2.84 s
   35   -1269.4341429239      4.22E-03
 J construction time:  CPU 3.32 s  wall 3.32 s
   36   -1269.4781646640      4.29E-03
 J construction time:  CPU 3.59 s  wall 3.59 s
   37   -1239.1329009644      2.51E-02
 J construction time:  CPU 3.49 s  wall 3.49 s
   38   -1269.1908219702      8.18E-03
 J construction time:  CPU 3.41 s  wall 3.41 s
   39   -1267.4658527258      8.07E-03
 J construction time:  CPU 3.39 s  wall 3.39 s
   40   -1269.9786470933      3.38E-03
 J construction time:  CPU 3.36 s  wall 3.36 s
   41   -1269.2301839512      5.41E-03
 J construction time:  CPU 3.29 s  wall 3.29 s
   42   -1270.0816936631      2.19E-03
 J construction time:  CPU 3.31 s  wall 3.31 s
   43   -1269.1453342629      5.03E-03
 J construction time:  CPU 3.21 s  wall 3.21 s
   44   -1269.4500740164      4.23E-03
 J construction time:  CPU 3.22 s  wall 3.22 s
   45   -1269.3479730352      4.76E-03
 J construction time:  CPU 3.60 s  wall 3.60 s
   46   -1270.1644651489      1.13E-03
 J construction time:  CPU 3.33 s  wall 3.33 s
   47   -1269.4152755116      4.37E-03
 J construction time:  CPU 2.82 s  wall 2.82 s
   48   -1269.4088480431      4.39E-03
 J construction time:  CPU 2.72 s  wall 2.72 s
   49   -1269.4080530036      4.39E-03
 J construction time:  CPU 2.93 s  wall 2.93 s
   50   -1269.4005672197      4.41E-03
 J construction time:  CPU 3.02 s  wall 3.02 s
   51   -1269.3918236190      4.43E-03
 J construction time:  CPU 3.08 s  wall 3.08 s
   52   -1269.3799664309      4.49E-03
 J construction time:  CPU 3.38 s  wall 3.55 s
   53   -1269.3562329985      4.56E-03
 J construction time:  CPU 3.31 s  wall 3.31 s
   54   -1269.3512516156      4.62E-03
 J construction time:  CPU 3.75 s  wall 3.76 s
   55   -1238.2443764014      2.57E-02
 J construction time:  CPU 3.88 s  wall 3.90 s
   56   -1269.0311343143      8.84E-03
 J construction time:  CPU 3.46 s  wall 3.46 s
   57   -1267.3530460921      8.40E-03
 J construction time:  CPU 3.49 s  wall 3.50 s
   58   -1269.9441614188      3.66E-03
 J construction time:  CPU 3.50 s  wall 3.50 s
   59   -1269.2035990659      5.58E-03
 J construction time:  CPU 3.60 s  wall 3.61 s
   60   -1270.0669555315      2.37E-03
 J construction time:  CPU 3.62 s  wall 3.63 s
   61   -1269.1239606363      5.13E-03
 J construction time:  CPU 3.27 s  wall 3.27 s
   62   -1269.4373250955      4.31E-03
 J construction time:  CPU 3.43 s  wall 3.44 s
   63   -1269.3391587133      4.78E-03
 J construction time:  CPU 3.60 s  wall 3.60 s
   64   -1270.1623623234      1.16E-03
 J construction time:  CPU 3.59 s  wall 3.60 s
   65   -1269.4686476711      4.24E-03
 J construction time:  CPU 3.22 s  wall 3.22 s
   66   -1269.4411379222      4.31E-03
 J construction time:  CPU 3.25 s  wall 3.26 s
   67   -1269.4261476914      4.35E-03
 J construction time:  CPU 3.18 s  wall 3.18 s
   68   -1269.3882574777      4.47E-03
 J construction time:  CPU 3.10 s  wall 3.10 s
   69   -1269.3909448309      4.46E-03
 J construction time:  CPU 3.08 s  wall 3.08 s
   70   -1269.3695696200      4.54E-03
 J construction time:  CPU 3.46 s  wall 3.47 s
   71   -1269.5185946407      4.08E-03
 J construction time:  CPU 3.52 s  wall 3.52 s
   72   -1269.3928943832      4.36E-03
 J construction time:  CPU 3.50 s  wall 3.51 s
   73   -1269.4084734281      4.38E-03
 J construction time:  CPU 3.67 s  wall 3.67 s
   74   -1269.3925662057      4.38E-03
 J construction time:  CPU 3.56 s  wall 3.59 s
   75   -1269.3898564897      4.35E-03
 J construction time:  CPU 4.00 s  wall 4.01 s
   76   -1269.3650015169      4.51E-03
 J construction time:  CPU 3.59 s  wall 3.59 s
   77   -1269.2399022117      4.56E-03
 J construction time:  CPU 3.45 s  wall 3.45 s
   78   -1269.3767323065      4.48E-03
 J construction time:  CPU 3.35 s  wall 3.36 s
   79   -1269.3754271026      4.49E-03
 J construction time:  CPU 4.09 s  wall 4.12 s
   80   -1220.2969877835      2.99E-02
 J construction time:  CPU 3.88 s  wall 3.89 s
   81   -1269.0229656232      8.82E-03
 J construction time:  CPU 3.79 s  wall 3.80 s
   82   -1265.9355051184      9.52E-03
 J construction time:  CPU 3.82 s  wall 3.83 s
   83   -1269.9266333024      3.61E-03
 J construction time:  CPU 3.67 s  wall 3.68 s
   84   -1269.3001970325      5.16E-03
 J construction time:  CPU 3.63 s  wall 3.64 s
   85   -1268.9592700005      5.95E-03
 J construction time:  CPU 3.68 s  wall 3.68 s
   86   -1270.0999839492      2.00E-03
 J construction time:  CPU 3.73 s  wall 3.74 s
   87   -1269.3272444335      4.97E-03
 J construction time:  CPU 3.50 s  wall 3.50 s
   88   -1269.2358478133      4.65E-03
 J construction time:  CPU 3.48 s  wall 3.48 s
   89   -1269.4381536596      4.37E-03
 J construction time:  CPU 3.74 s  wall 3.78 s
   90   -1269.4461617910      4.15E-03
 J construction time:  CPU 4.05 s  wall 4.06 s
   91   -1269.4342695969      4.30E-03
 J construction time:  CPU 3.56 s  wall 3.57 s
   92   -1269.4670574529      4.06E-03
 J construction time:  CPU 3.06 s  wall 3.06 s
   93   -1269.4706981365      4.05E-03
 J construction time:  CPU 3.53 s  wall 3.54 s
   94   -1269.3038891263      4.41E-03
 J construction time:  CPU 3.52 s  wall 3.53 s
   95   -1269.4459841496      4.14E-03
 J construction time:  CPU 3.29 s  wall 3.30 s
   96   -1269.4339478416      4.20E-03
 J construction time:  CPU 3.61 s  wall 3.64 s
   97   -1269.4451471823      4.20E-03
 J construction time:  CPU 3.14 s  wall 3.14 s
   98   -1269.4367016195      4.24E-03
 J construction time:  CPU 3.80 s  wall 3.80 s
   99   -1269.5819916393      3.97E-03
 J construction time:  CPU 3.62 s  wall 3.62 s
  100   -1269.6132679897      3.76E-03
 J construction time:  CPU 3.38 s  wall 3.38 s
  101   -1270.1520778590      1.36E-03
 J construction time:  CPU 3.43 s  wall 3.43 s
  102   -1269.2279583344      4.64E-03
 J construction time:  CPU 3.23 s  wall 3.23 s
  103   -1269.2619260280      4.51E-03
 J construction time:  CPU 3.30 s  wall 3.30 s
  104   -1269.2465486110      4.57E-03
 J construction time:  CPU 3.12 s  wall 3.12 s
  105   -1269.2476331836      4.57E-03
 J construction time:  CPU 3.85 s  wall 3.85 s
  106   -1269.2616010299      4.53E-03
 J construction time:  CPU 3.12 s  wall 3.13 s
  107   -1269.2619095481      4.54E-03
 J construction time:  CPU 3.19 s  wall 3.19 s
  108   -1269.3134791836      4.41E-03
 J construction time:  CPU 3.36 s  wall 3.36 s
  109   -1269.4779645389      4.28E-03
 J construction time:  CPU 3.08 s  wall 3.08 s
  110   -1269.6011352752      3.83E-03
 J construction time:  CPU 3.41 s  wall 3.42 s
  111   -1269.4024863986      4.41E-03
 J construction time:  CPU 3.47 s  wall 3.47 s
  112   -1269.4065233566      4.32E-03
 J construction time:  CPU 3.30 s  wall 3.30 s
  113   -1269.4040920094      4.34E-03
 J construction time:  CPU 3.09 s  wall 3.10 s
  114   -1269.3997078923      4.36E-03
 J construction time:  CPU 3.29 s  wall 3.30 s
  115   -1269.4054746801      4.34E-03
 J construction time:  CPU 3.29 s  wall 3.30 s
  116   -1269.4680519699      4.05E-03
 J construction time:  CPU 3.74 s  wall 3.74 s
  117   -1220.8257522123      2.95E-02
 J construction time:  CPU 3.61 s  wall 3.61 s
  118   -1269.1426548680      8.31E-03
 J construction time:  CPU 3.87 s  wall 3.87 s
  119   -1266.0291611322      9.29E-03
 J construction time:  CPU 3.83 s  wall 3.84 s
  120   -1269.9435226111      3.47E-03
 J construction time:  CPU 4.22 s  wall 4.23 s
  121   -1269.2992018761      5.13E-03
 J construction time:  CPU 3.35 s  wall 3.35 s
  122   -1269.0021034948      5.78E-03
 J construction time:  CPU 3.83 s  wall 3.83 s
  123   -1270.1002541478      2.01E-03
 J construction time:  CPU 3.77 s  wall 3.77 s
  124   -1269.3661516817      4.92E-03
 J construction time:  CPU 3.52 s  wall 3.52 s
  125   -1269.2321100145      4.66E-03
 J construction time:  CPU 3.45 s  wall 3.45 s
  126   -1269.4203981254      4.40E-03
 J construction time:  CPU 3.69 s  wall 3.70 s
  127   -1269.4436342774      4.16E-03
 J construction time:  CPU 3.18 s  wall 3.18 s
  128   -1269.4434501518      4.15E-03
 J construction time:  CPU 3.37 s  wall 3.38 s
  129   -1269.4388498937      4.16E-03
 J construction time:  CPU 3.32 s  wall 3.32 s
  130   -1269.4331656453      4.18E-03
 J construction time:  CPU 3.20 s  wall 3.21 s
  131   -1269.4261693681      4.22E-03
 J construction time:  CPU 3.35 s  wall 3.35 s
  132   -1269.4270187758      4.19E-03
 J construction time:  CPU 3.35 s  wall 3.35 s
  133   -1269.4030520536      4.30E-03
 J construction time:  CPU 3.14 s  wall 3.14 s
  134   -1269.3929506224      4.36E-03
 J construction time:  CPU 3.45 s  wall 3.45 s
  135   -1269.3883269004      4.39E-03
 J construction time:  CPU 3.92 s  wall 3.93 s
  136   -1269.5041662219      4.24E-03
 J construction time:  CPU 3.48 s  wall 3.48 s
  137   -1269.4283288842      4.42E-03
 J construction time:  CPU 3.52 s  wall 3.52 s
  138   -1269.2879465257      4.47E-03
 J construction time:  CPU 3.85 s  wall 3.86 s
  139   -1269.9703918750      3.13E-03
 J construction time:  CPU 3.61 s  wall 3.61 s
  140   -1270.1205116597      1.66E-03
 J construction time:  CPU 3.57 s  wall 3.57 s
  141   -1269.5262859308      4.10E-03
 J construction time:  CPU 3.31 s  wall 3.31 s
  142   -1269.4535747113      4.32E-03
 J construction time:  CPU 3.25 s  wall 3.25 s
  143   -1269.4826391880      4.25E-03
 J construction time:  CPU 3.28 s  wall 3.28 s
  144   -1269.5495969147      4.01E-03
 J construction time:  CPU 3.77 s  wall 3.77 s
  145   -1270.1584634337      1.23E-03
 J construction time:  CPU 3.58 s  wall 3.59 s
  146   -1269.2006258323      4.66E-03
 J construction time:  CPU 3.45 s  wall 3.45 s
  147   -1269.2022103017      4.65E-03
 J construction time:  CPU 3.21 s  wall 3.22 s
  148   -1269.2028253958      4.65E-03
 J construction time:  CPU 3.26 s  wall 3.26 s
  149   -1269.2071004974      4.63E-03
 J construction time:  CPU 3.51 s  wall 3.51 s
  150   -1269.3375667103      4.61E-03
 J construction time:  CPU 3.82 s  wall 3.82 s
  151   -1269.2070597402      4.63E-03
 J construction time:  CPU 3.17 s  wall 3.17 s
  152   -1269.2064640042      4.64E-03
 J construction time:  CPU 3.30 s  wall 3.31 s
  153   -1269.1977332461      4.67E-03
 J construction time:  CPU 3.54 s  wall 3.55 s
  154   -1269.2049662207      4.65E-03
 J construction time:  CPU 3.54 s  wall 3.54 s
  155   -1269.4303294055      4.24E-03
 J construction time:  CPU 3.38 s  wall 3.38 s
  156   -1269.4453374110      4.20E-03
 J construction time:  CPU 3.57 s  wall 3.58 s
  157   -1269.5737015553      3.97E-03
 J construction time:  CPU 3.46 s  wall 3.46 s
  158   -1269.3824128879      4.46E-03
 J construction time:  CPU 3.42 s  wall 3.42 s
  159   -1269.5937499039      3.79E-03
 J construction time:  CPU 3.37 s  wall 3.37 s
  160   -1269.5948013491      3.82E-03
 J construction time:  CPU 3.76 s  wall 3.76 s
  161   -1269.9378874752      3.51E-03
 J construction time:  CPU 3.92 s  wall 3.93 s
  162   -1270.1143386199      1.78E-03
 J construction time:  CPU 3.92 s  wall 3.92 s
  163   -1269.6499936702      3.49E-03
 J construction time:  CPU 3.74 s  wall 3.75 s
  164   -1269.3879535788      4.41E-03
 J construction time:  CPU 3.77 s  wall 3.77 s
  165   -1269.3550708043      4.55E-03
 J construction time:  CPU 3.96 s  wall 3.97 s
  166   -1269.3420231726      4.61E-03
 J construction time:  CPU 3.32 s  wall 3.32 s
  167   -1269.3331107515      4.64E-03
 J construction time:  CPU 3.29 s  wall 3.29 s
  168   -1269.3206029360      4.69E-03
 J construction time:  CPU 3.30 s  wall 3.30 s
  169   -1269.3356163862      4.61E-03
 J construction time:  CPU 3.58 s  wall 3.58 s
  170   -1267.3400219477      7.36E-03
 J construction time:  CPU 3.78 s  wall 3.79 s
  171   -1269.3201305649      4.68E-03
 J construction time:  CPU 3.48 s  wall 3.49 s
  172   -1269.1481731941      4.87E-03
 J construction time:  CPU 3.40 s  wall 3.40 s
  173   -1269.2218947845      4.60E-03
 J construction time:  CPU 3.25 s  wall 3.25 s
  174   -1269.2467299327      4.51E-03
 J construction time:  CPU 3.17 s  wall 3.18 s
  175   -1269.2233854302      4.59E-03
 J construction time:  CPU 3.25 s  wall 3.25 s
  176   -1269.2132544878      4.61E-03
 J construction time:  CPU 3.49 s  wall 3.49 s
  177   -1269.2517884632      4.54E-03
 J construction time:  CPU 3.82 s  wall 3.83 s
  178   -1270.0965703799      2.08E-03
 J construction time:  CPU 3.72 s  wall 3.73 s
  179   -1269.3225039296      4.99E-03
 J construction time:  CPU 3.59 s  wall 3.60 s
  180   -1269.3129604969      4.94E-03
 J construction time:  CPU 4.02 s  wall 4.03 s
  181   -1270.1566521564      1.20E-03
 J construction time:  CPU 3.87 s  wall 3.87 s
  182   -1269.3772486198      4.61E-03
 J construction time:  CPU 3.46 s  wall 3.46 s
  183   -1269.3026109909      4.53E-03
 J construction time:  CPU 3.33 s  wall 3.33 s
  184   -1269.2270127833      4.59E-03
 J construction time:  CPU 3.35 s  wall 3.35 s
  185   -1269.2108321510      4.67E-03
 J construction time:  CPU 3.60 s  wall 3.60 s
  186   -1266.8351855210      6.94E-03
 J construction time:  CPU 3.46 s  wall 3.47 s
  187   -1264.3432112661      9.45E-03
 J construction time:  CPU 3.61 s  wall 3.61 s
  188   -1266.7931018209      6.95E-03
 J construction time:  CPU 3.30 s  wall 3.30 s
  189   -1266.7999526499      6.92E-03
 J construction time:  CPU 3.25 s  wall 3.26 s
  190   -1266.7858750822      6.94E-03
 J construction time:  CPU 3.43 s  wall 3.43 s
  191   -1266.7716985819      6.94E-03
 J construction time:  CPU 3.33 s  wall 3.34 s
  192   -1266.7653187163      6.94E-03
 J construction time:  CPU 3.58 s  wall 3.58 s
  193   -1269.2630674931      4.39E-03
 J construction time:  CPU 3.56 s  wall 3.56 s
  194   -1269.3576862252      4.61E-03
 J construction time:  CPU 3.43 s  wall 3.43 s
  195   -1269.4273429512      4.25E-03
 J construction time:  CPU 4.27 s  wall 4.28 s
  196   -1269.2355014431      5.27E-03
 J construction time:  CPU 3.75 s  wall 3.75 s
  197   -1270.0915624101      2.21E-03
 J construction time:  CPU 3.78 s  wall 3.79 s
  198   -1270.1399472541      1.36E-03
 J construction time:  CPU 3.86 s  wall 3.88 s
  199   -1269.4183129896      4.42E-03
 J construction time:  CPU 3.72 s  wall 3.73 s
  200   -1269.5123023974      4.16E-03
 J construction time:  CPU 3.41 s  wall 3.42 s
  201   -1269.4775174104      4.26E-03
 J construction time:  CPU 3.23 s  wall 3.23 s
  202   -1269.4797316371      4.25E-03
 J construction time:  CPU 3.33 s  wall 3.34 s
  203   -1269.4782374941      4.26E-03
 J construction time:  CPU 3.26 s  wall 3.27 s
  204   -1269.4793540731      4.26E-03
 J construction time:  CPU 3.35 s  wall 3.36 s
  205   -1269.4663452337      4.29E-03
 J construction time:  CPU 3.34 s  wall 3.34 s
  206   -1269.4694090071      4.29E-03
 J construction time:  CPU 3.37 s  wall 3.37 s
  207   -1269.4849440848      4.24E-03
 J construction time:  CPU 3.46 s  wall 3.46 s
  208   -1269.4533929274      4.17E-03
 J construction time:  CPU 3.84 s  wall 3.85 s
  209   -1269.0248492418      5.52E-03
 J construction time:  CPU 3.70 s  wall 3.71 s
  210   -1269.4463784081      4.13E-03
 J construction time:  CPU 3.97 s  wall 3.97 s
  211   -1269.4444527755      4.18E-03
 J construction time:  CPU 3.37 s  wall 3.38 s
  212   -1269.4283441118      4.23E-03
 J construction time:  CPU 3.43 s  wall 3.44 s
  213   -1269.4245024300      4.23E-03
 J construction time:  CPU 3.89 s  wall 3.90 s
  214   -1269.8058491311      4.57E-03
 J construction time:  CPU 3.67 s  wall 3.68 s
  215   -1270.0834152274      2.13E-03
 J construction time:  CPU 3.85 s  wall 3.86 s
  216   -1269.2678479141      4.42E-03
 J construction time:  CPU 3.47 s  wall 3.47 s
  217   -1269.4134713223      4.26E-03
 J construction time:  CPU 3.46 s  wall 3.47 s
  218   -1269.3744899163      4.42E-03
 J construction time:  CPU 3.52 s  wall 3.53 s
  219   -1269.3742157999      4.40E-03
 J construction time:  CPU 3.48 s  wall 3.49 s
  220   -1269.3718271619      4.44E-03
 J construction time:  CPU 3.38 s  wall 3.39 s
  221   -1269.3653371105      4.46E-03
 J construction time:  CPU 3.72 s  wall 3.72 s
  222   -1269.4343262074      4.38E-03
 J construction time:  CPU 3.17 s  wall 3.18 s
  223   -1269.4829582997      4.23E-03
 J construction time:  CPU 3.30 s  wall 3.30 s
  224   -1269.3941128279      4.44E-03
 J construction time:  CPU 3.47 s  wall 3.47 s
  225   -1269.4333913168      4.22E-03
 J construction time:  CPU 3.83 s  wall 3.83 s
  226   -1269.4303896907      4.27E-03
 J construction time:  CPU 3.59 s  wall 3.60 s
  227   -1269.4443785078      4.18E-03
 J construction time:  CPU 3.53 s  wall 3.54 s
  228   -1269.4315639253      4.28E-03
 J construction time:  CPU 3.46 s  wall 3.46 s
  229   -1270.1455993594      1.41E-03
 J construction time:  CPU 3.54 s  wall 3.54 s
  230   -1270.1575398448      1.19E-03
 J construction time:  CPU 3.56 s  wall 3.56 s
  231   -1269.2512567415      4.52E-03
 J construction time:  CPU 3.21 s  wall 3.22 s
  232   -1269.2597401302      4.49E-03
 J construction time:  CPU 3.88 s  wall 3.89 s
  233   -1269.4260232554      4.28E-03
 J construction time:  CPU 3.61 s  wall 3.61 s
  234   -1269.2468774045      4.53E-03
 J construction time:  CPU 3.36 s  wall 3.37 s
  235   -1269.2515565288      4.51E-03
 J construction time:  CPU 3.26 s  wall 3.26 s
  236   -1269.2477059413      4.53E-03
 J construction time:  CPU 3.39 s  wall 3.39 s
  237   -1269.2416253031      4.55E-03
 J construction time:  CPU 3.56 s  wall 3.57 s
  238   -1269.4074605884      4.45E-03
 J construction time:  CPU 3.21 s  wall 3.21 s
  239   -1269.3937818409      4.48E-03
 J construction time:  CPU 3.26 s  wall 3.26 s
  240   -1269.4849677938      4.25E-03
 J construction time:  CPU 3.93 s  wall 3.93 s
  241   -1269.4904930047      4.19E-03
 J construction time:  CPU 3.34 s  wall 3.34 s
  242   -1269.5569751169      3.68E-03
 J construction time:  CPU 3.43 s  wall 3.44 s
  243   -1269.5786239968      3.84E-03
 J construction time:  CPU 3.76 s  wall 3.76 s
  244   -1269.2706176915      4.41E-03
 J construction time:  CPU 3.60 s  wall 3.60 s
  245   -1269.4157269109      4.27E-03
 J construction time:  CPU 3.80 s  wall 3.80 s
  246   -1230.9635098808      2.71E-02
 J construction time:  CPU 3.75 s  wall 3.75 s
  247   -1269.1874540801      8.14E-03
 J construction time:  CPU 3.81 s  wall 3.81 s
  248   -1267.9742305126      8.01E-03
 J construction time:  CPU 3.67 s  wall 3.67 s
  249   -1268.8996902219      6.25E-03
 J construction time:  CPU 3.60 s  wall 3.60 s
  250   -1269.9792570527      3.20E-03
 J construction time:  CPU 3.96 s  wall 3.97 s
  251   -1269.2335228697      5.37E-03
 J construction time:  CPU 3.52 s  wall 3.52 s
  252   -1270.1051333646      2.00E-03
 J construction time:  CPU 3.69 s  wall 3.70 s
  253   -1269.5782234818      4.15E-03
 J construction time:  CPU 3.40 s  wall 3.40 s
  254   -1269.2525030057      4.54E-03
 J construction time:  CPU 3.69 s  wall 3.69 s
  255   -1269.3854962489      4.49E-03
 J construction time:  CPU 4.05 s  wall 4.05 s
  256   -1269.3836200989      4.44E-03
 J construction time:  CPU 3.54 s  wall 3.55 s
  257   -1269.3906291423      4.40E-03
 J construction time:  CPU 3.07 s  wall 3.07 s
  258   -1269.3947085889      4.38E-03
 J construction time:  CPU 3.02 s  wall 3.02 s
  259   -1269.4002860009      4.36E-03
 J construction time:  CPU 3.13 s  wall 3.13 s
  260   -1269.4082163760      4.33E-03
 J construction time:  CPU 3.16 s  wall 3.16 s
  261   -1269.4207323861      4.27E-03
 J construction time:  CPU 2.95 s  wall 2.95 s
  262   -1269.4187223341      4.28E-03
 J construction time:  CPU 3.56 s  wall 3.56 s
  263   -1269.2190933393      4.64E-03
 J construction time:  CPU 3.44 s  wall 3.44 s
  264   -1269.4230011403      4.31E-03
 J construction time:  CPU 3.38 s  wall 3.38 s
  265   -1269.2484953125      4.52E-03
 J construction time:  CPU 3.34 s  wall 3.34 s
  266   -1269.2428692474      4.57E-03
 J construction time:  CPU 3.47 s  wall 3.47 s
  267   -1270.1426285181      1.45E-03
 J construction time:  CPU 3.51 s  wall 3.51 s
  268   -1269.4280831760      4.22E-03
 J construction time:  CPU 3.42 s  wall 3.42 s
  269   -1269.6631604406      3.54E-03
 J construction time:  CPU 3.46 s  wall 3.46 s
  270   -1269.2292889227      4.62E-03
 J construction time:  CPU 3.86 s  wall 3.86 s
  271   -1269.2646748838      4.57E-03
 J construction time:  CPU 3.20 s  wall 3.20 s
  272   -1269.2415128820      4.60E-03
 J construction time:  CPU 3.16 s  wall 3.16 s
  273   -1269.2510648704      4.57E-03
 J construction time:  CPU 3.39 s  wall 3.40 s
  274   -1269.3996021023      4.32E-03
 J construction time:  CPU 3.47 s  wall 3.47 s
  275   -1269.5542672940      3.98E-03
 J construction time:  CPU 3.40 s  wall 3.40 s
  276   -1269.2590390224      4.49E-03
 J construction time:  CPU 3.37 s  wall 3.37 s
  277   -1269.3812884170      4.45E-03
 J construction time:  CPU 3.46 s  wall 3.46 s
  278   -1269.6585806220      3.57E-03
 J construction time:  CPU 3.52 s  wall 3.53 s
  279   -1269.4129917459      4.34E-03
 J construction time:  CPU 3.26 s  wall 3.26 s
  280   -1269.4178077239      4.31E-03
 J construction time:  CPU 3.45 s  wall 3.45 s
  281   -1269.6235180496      3.78E-03
 J construction time:  CPU 3.36 s  wall 3.36 s
  282   -1269.4085246615      4.40E-03
 J construction time:  CPU 3.60 s  wall 3.60 s
  283   -1269.9067894346      3.90E-03
 J construction time:  CPU 3.52 s  wall 3.52 s
  284   -1270.0911899188      2.00E-03
 J construction time:  CPU 4.17 s  wall 4.19 s
  285   -1269.4006574816      4.41E-03
 J construction time:  CPU 3.76 s  wall 3.76 s
  286   -1269.3732302412      4.54E-03
 J construction time:  CPU 3.33 s  wall 3.33 s
  287   -1269.4129266577      4.34E-03
 J construction time:  CPU 3.42 s  wall 3.42 s
  288   -1269.3858825310      4.49E-03
 J construction time:  CPU 3.36 s  wall 3.36 s
  289   -1269.3923191332      4.43E-03
 J construction time:  CPU 3.43 s  wall 3.43 s
  290   -1269.3936875005      4.42E-03
 J construction time:  CPU 3.31 s  wall 3.31 s
  291   -1269.4028971019      4.37E-03
 J construction time:  CPU 3.63 s  wall 3.63 s
  292   -1269.1383631605      4.97E-03
 J construction time:  CPU 3.50 s  wall 3.50 s
  293   -1269.2607215636      4.46E-03
 J construction time:  CPU 3.44 s  wall 3.44 s
  294   -1269.2601198174      4.48E-03
 J construction time:  CPU 3.49 s  wall 3.50 s
  295   -1269.2511495542      4.50E-03
 J construction time:  CPU 3.46 s  wall 3.46 s
  296   -1269.4363773621      4.25E-03
 J construction time:  CPU 3.42 s  wall 3.42 s
  297   -1269.6124931102      3.88E-03
 J construction time:  CPU 3.39 s  wall 3.40 s
  298   -1269.4699786610      4.16E-03
 J construction time:  CPU 3.34 s  wall 3.34 s
  299   -1269.4221384599      4.35E-03
 J construction time:  CPU 3.56 s  wall 3.57 s
  300   -1269.9440074303      3.28E-03    Convergence failure

 Q-Chem fatal error occurred in module /scratch/svnadmin/28887_epif/qchem/scfman/scfman.C, line 4367:

 SCF failed to converge

Reading symbols from /usr/local/bin/qchem4/exe/qcprog.exe...(no debugging symbols found)...done.
Attaching to program: /usr/local/bin/qchem4/exe/qcprog.exe, process 26253
0x00007fff8e1a591a in wait4 () from /usr/lib/system/libsystem_kernel.dylib
(gdb) #0  0x00007fff8e1a591a in wait4 () from /usr/lib/system/libsystem_kernel.dylib
#1  0x00007fff9742c228 in system () from /usr/lib/system/libsystem_c.dylib
#2  0x00000001174e9db1 in QTraceback() ()
#3  0x00000001174e97f9 in QKill() ()
#4  0x00000001174e7c73 in QCrashLoc(char const*, char const*, int) ()
#5  0x000000010d6255a3 in SCFman(int&, int&, XCFunctional const&, int) ()
#6  0x000000010d628a52 in scfman_main() ()
#7  0x000000010cc78a7f in qrun(char const*) ()
#8  0x000000010cc76e49 in ProgMan(std::basic_ifstream<char, std::char_traits<char> >&) ()
#9  0x000000010cc7294e in main ()
(gdb) A debugging session is active.

	Inferior 1 [process 26253] will be detached.

Quit anyway? (y or n) [answered Y; input not from terminal]
Detaching from program: /usr/local/bin/qchem4/exe/qcprog.exe, process 26253
