
Running Job 1 of 1 PEO7relax_1A1.in
qchem PEO7relax_1A1.in_12461.0 /usr/local/bin/qscratch/qchem12461/ 1
                  Welcome to Q-Chem
     A Quantum Leap Into The Future Of Chemistry


 Q-Chem 4.2, Q-Chem, Inc., Pleasanton, CA (2014).

 Y. Shao,  Z. Gan,  E. Epifanovsky,  A. T. B. Gilbert,  M. Wormit,  
 J. Kussmann,  A. W. Lange,  A. Behn,  J. Deng,  X. Feng,  D. Ghosh,  
 M. Goldey,  P. R. Horn,  L. D. Jacobson,  I. Kaliman,  R. Z. Khaliullin,  
 T. Kus,  A. Landau,  J. Liu,  E. I. Proynov,  Y. M. Rhee,  R. M. Richard,  
 M. A. Rohrdanz,  R. P. Steele,  E. J. Sundstrom,  H. L. Woodcock III,  
 P. M. Zimmerman,  D. Zuev,  B. Albrecht,  E. Alguire,  B. Austin,  
 G. J. O. Beran,  Y. A. Bernard,  E. Berquist,  K. Brandhorst,  
 K. B. Bravaya,  S. T. Brown,  D. Casanova,  C.-M. Chang,  Y. Chen,  
 S. H. Chien,  K. D. Closser,  D. L. Crittenden,  M. Diedenhofen,  
 R. A. DiStasio Jr.,  H. Do,  A. D. Dutoi,  R. G. Edgar,  S. Fatehi,  
 L. Fusti-Molnar,  A. Ghysels,  A. Golubeva-Zadorozhnaya,  J. Gomes,  
 M. W. D. Hanson-Heine,  P. H. P. Harbach,  A. W. Hauser,  E. G. Hohenstein,  
 Z. C. Holden,  T.-C. Jagau,  H. Ji,  B. Kaduk,  K. Khistyaev,  Jaehoon Kim,  
 Jihan Kim,  R. A. King,  P. Klunzinger,  D. Kosenkov,  T. Kowalczyk,  
 C. M. Krauter,  K. U. Lao,  A. Laurent,  K. V. Lawler,  S. V. Levchenko,  
 C. Y. Lin,  F. Liu,  E. Livshits,  R. C. Lochan,  A. Luenser,  P. Manohar,  
 S. F. Manzer,  S.-P. Mao,  N. Mardirossian,  A. V. Marenich,  S. A. Maurer,  
 N. J. Mayhall,  C. M. Oana,  R. Olivares-Amaya,  D. P. O'Neill,  
 J. A. Parkhill,  T. M. Perrine,  R. Peverati,  P. A. Pieniazek,  A. Prociuk,  
 D. R. Rehn,  E. Rosta,  N. J. Russ,  N. Sergueev,  S. M. Sharada,  
 S. Sharma,  D. W. Small,  A. Sodt,  T. Stein,  D. Stuck,  Y.-C. Su,  
 A. J. W. Thom,  T. Tsuchimochi,  L. Vogt,  O. Vydrov,  T. Wang,  
 M. A. Watson,  J. Wenzel,  A. White,  C. F. Williams,  V. Vanovschi,  
 S. Yeganeh,  S. R. Yost,  Z.-Q. You,  I. Y. Zhang,  X. Zhang,  Y. Zhao,  
 B. R. Brooks,  G. K. L. Chan,  D. M. Chipman,  C. J. Cramer,  
 W. A. Goddard III,  M. S. Gordon,  W. J. Hehre,  A. Klamt,  
 H. F. Schaefer III,  M. W. Schmidt,  C. D. Sherrill,  D. G. Truhlar,  
 A. Warshel,  X. Xu,  A. Aspuru-Guzik,  R. Baer,  A. T. Bell,  N. A. Besley,  
 J.-D. Chai,  A. Dreuw,  B. D. Dunietz,  T. R. Furlani,  S. R. Gwaltney,  
 C.-P. Hsu,  Y. Jung,  J. Kong,  D. S. Lambrecht,  W. Liang,  C. Ochsenfeld,  
 V. A. Rassolov,  L. V. Slipchenko,  J. E. Subotnik,  T. Van Voorhis,  
 J. M. Herbert,  A. I. Krylov,  P. M. W. Gill,  M. Head-Gordon

 Contributors to earlier versions of Q-Chem not listed above: 
 R. D. Adamson,  J. Baker,  E. F. C. Byrd,  A. K. Chakraborty,  C.-L. Cheng,  
 H. Dachsel,  R. J. Doerksen,  G. Hawkins,  A. Heyden,  S. Hirata,  
 G. Kedziora,  F. J. Keil,  C. Kelley,  P. P. Korambath,  W. Kurlancheek,  
 A. M. Lee,  M. S. Lee,  D. Liotard,  I. Lotan,  P. E. Maslen,  N. Nair,  
 D. Neuhauser,  R. Olson,  B. Peters,  J. Ritchie,  N. E. Schultz,  
 N. Shenvi,  A. C. Simmonett,  K. S. Thanthiriwatte,  Q. Wu,  W. Zhang

 Q-Chem 4.2.0.0  for Mac (Intel) OS X

 Parts of Q-Chem use Armadillo 4.100.2 (Dirt Cruiser).
 http://arma.sourceforge.net/

 Q-Chem begins on Wed Jul  8 11:16:36 2015  

Host: 
0

     Scratch files written to /usr/local/bin/qscratch/qchem12461//
 Dec114 28887_epif 4730   
Processing $rem in /usr/local/bin/qchem4/config/preferences.
 MEM_TOTAL  6000 
Checking the input file for consistency...	...done.

--------------------------------------------------------------
User input:
--------------------------------------------------------------
$molecule
0 1
C   -4.3681500    2.0273000   -0.1260500
C   -3.1352100    2.9216600   -0.0954300
O   -1.9809200    2.1178700    0.0276400
C   -0.8365800    2.9446800    0.0330400
C    0.4127400    2.0726000    0.0368100
O    1.5479300    2.9104800    0.0378200
C    2.7191400    2.1239800    0.0133400
C    3.9289800    3.0490500    0.0516100
O    5.1077400    2.2728300    0.0390500
C    6.2301300    3.1271400    0.0974900
C    7.4944300    2.2837400    0.1999800
O    8.6114900    3.1437800    0.2718700
C    9.7849200    2.3795900    0.4440100
C   10.9764400    3.3255800    0.5569500
O   -5.5121800    2.8389400   -0.2787200
C   -6.6659200    2.0280600   -0.3386800
C   -7.8638200    2.9044600   -0.6826900
O   -9.0209300    2.0994800   -0.7495400
C  -10.1176000    2.8886100   -1.1574800
C  -11.3632600    2.0174700   -1.2083800
O   12.1657000    2.5991700    0.7085300
H   -4.4123600    1.4575600    0.8305800
H   -4.2599300    1.3311300   -0.9896300
H   -3.2294100    3.6130600    0.7734600
H   -3.1133000    3.4973500   -1.0495500
H   -0.8214900    3.5805700    0.9477000
H   -0.7973800    3.5805800   -0.8819500
H    0.3911900    1.4373800   -0.8787300
H    0.3899700    1.4376500    0.9521600
H    2.7710600    1.5231400   -0.9236600
H    2.7671100    1.4584500    0.9060400
H    3.8636200    3.6521500    0.9867700
H    3.8857700    3.7130800   -0.8424900
H    6.1884500    3.7794300    1.0008100
H    6.2969700    3.7473600   -0.8257400
H    7.5566800    1.6346400   -0.7034100
H    7.4119100    1.6615800    1.1212300
H    9.9525100    1.7137400   -0.4333900
H    9.7339100    1.7821500    1.3832800
H   10.8400300    4.0289800    1.4102900
H   11.0529300    3.9387800   -0.3660300
H   -6.8511000    1.5450000    0.6476200
H   -6.5755100    1.2561100   -1.1381300
H   -7.6570100    3.3865800   -1.6666600
H   -7.9707600    3.6772800    0.1128300
H   -9.9505000    3.3006400   -2.1790200
H  -10.3067200    3.7121200   -0.4312800
H  -11.2171300    1.1865000   -1.9309500
H  -12.2346200    2.6256900   -1.5311300
H  -11.5724100    1.5931400   -0.2034500
H   12.2094800    2.3201700    1.6604000
$end

$rem
BASIS  =  6-31G*
GUI  =  2
JOB_TYPE  =  Optimization
METHOD  =  B3LYP
SCF_CONVERGENCE  =  8
$end
--------------------------------------------------------------
 ----------------------------------------------------------------
             Standard Nuclear Orientation (Angstroms)
    I     Atom           X                Y                Z
 ----------------------------------------------------------------
    1      C       4.7509904149    -0.4826129386    -0.2343108550
    2      C       3.5018776725     0.3887021882    -0.2728562079
    3      O       2.3575289158    -0.4376114225    -0.2370549111
    4      C       1.1997368342     0.3701737393    -0.2496485518
    5      C      -0.0303713061    -0.5130784108    -0.0822036230
    6      O      -1.1789596589     0.3062785333    -0.0921657753
    7      C      -2.3309290415    -0.4880034342     0.0894852143
    8      C      -3.5580761701     0.4133642044     0.0387089600
    9      O      -4.7185484661    -0.3720003074     0.2079927856
   10      C      -5.8584111769     0.4580030034     0.1385116627
   11      C      -7.1104264128    -0.4069691124     0.2060641459
   12      O      -8.2459544870     0.4274284780     0.1222985724
   13      C      -9.4133417085    -0.3647326618     0.1066683383
   14      C     -10.6274617230     0.5500581584    -0.0215610644
   15      O       5.8868771328     0.3544002137    -0.2408382076
   16      C       7.0572905223    -0.4318613335    -0.1763181276
   17      C       8.2581270813     0.4897390594    -0.0030307228
   18      O       9.4322382911    -0.2899097587     0.0675090698
   19      C      10.5378921887     0.5501514687     0.3198042982
   20      C      11.8005720505    -0.2958422395     0.3752908503
   21      O     -11.8100250583    -0.2026218577    -0.0195403114
   22      H       4.7437643663    -1.1463173826    -1.1293769664
   23      H       4.7123866701    -1.0884014929     0.7003894350
   24      H       3.5262392344     0.9890318494    -1.2114126763
   25      H       3.5310762209     1.0583441493     0.6176330325
   26      H       1.1131405633     0.9092739508    -1.2207606791
   27      H       1.2079966299     1.0955053329     0.5970733655
   28      H       0.0627145831    -1.0513428362     0.8892842915
   29      H      -0.0550648551    -1.2377042224    -0.9282847418
   30      H      -2.3104037863    -0.9907874193     1.0836986573
   31      H      -2.4241464544    -1.2416104669    -0.7263159539
   32      H      -3.5651156837     0.9187494626    -0.9548009550
   33      H      -3.4694883096     1.1655632190     0.8563681729
   34      H      -5.8879427314     1.0152722299    -0.8267786487
   35      H      -5.8768941358     1.1682368272     0.9968358221
   36      H      -7.1014737724    -0.9613115873     1.1724717387
   37      H      -7.0761338611    -1.1187375822    -0.6511428563
   38      H      -9.5108577543    -0.9396843728     1.0559810062
   39      H      -9.4121281999    -1.0541371569    -0.7688227674
   40      H     -10.5602047114     1.1644298203    -0.9487031027
   41      H     -10.6554552409     1.2531646699     0.8378658591
   42      H       7.1871337300    -1.0106311636    -1.1189699780
   43      H       7.0337295378    -1.1193473617     0.7011833905
   44      H       8.1065699768     1.0670697467     0.9388433415
   45      H       8.2984189869     1.1786948513    -0.8778195347
   46      H      10.4297289277     1.0620820426     1.3034012172
   47      H      10.6637163854     1.2976088020    -0.4967600539
   48      H      11.7175451608    -1.0505603443     1.1861420331
   49      H      12.6793379024     0.3528039161     0.5762787177
   50      H      11.9520022641    -0.8177962753    -0.5933767145
   51      H     -11.9102603531    -0.5777223799    -0.9333601346
 ----------------------------------------------------------------
 Molecular Point Group                 C1    NOp =  1
 Largest Abelian Subgroup              C1    NOp =  1
 Nuclear Repulsion Energy =  1531.5500104127 hartrees
 There are       85 alpha and       85 beta electrons
 Requested basis set is 6-31G(d)
 There are 144 shells and 375 basis functions

Total QAlloc Memory Limit   6000 MB
Mega-Array Size        61 MB
MEM_STATIC part        62 MB
 A cutoff of  1.0D-11 yielded   4042 shell pairs
 There are     27453 function pairs
 
 -------------------------------------------------------
 OpenMP Integral Computing Module                       
 Release: version 1.0, May 2013, Q-Chem Inc. Pittsburgh 
 -------------------------------------------------------
 Integral Job Info:
 Integral job number is                      11
 Integral operator is                         1
 short-range coefficients               -999999
 long-range coefficients                -999999
 Omega coefficients                           0
 if combine SR and LR in K              -999999
 Integral screening is                        0
 Integral computing path is                   2
 max size of driver memory is            800000
 size of driver memory is                593474
 size of scratch memory is              2260544
 max col of scratch BK array               1296
 max len of scratch array in speh3          155
 max len of scratch index in speh4           18
 max int batch size is                      520
 min int batch size is                       52
 fixed nKL is                                52
 max L of basis functions is                  2
 order of int derivative is                   0
 number of shells is                        144
 number of basis is                         375
 number of cartesian basis is               375
 number of contracted shell pairs          4042
 number of primitive shell pairs          13956
 maxK2 (contraction) of shell pair           36
 max number of K2 of shell pair               1
 max number of CS2 of shell pair            503
 max number of PS2 of shell pair           2406
 mem total for path MDJ                   68008
 -------------------------------------------------------
         cpu   0.03 wall   0.03
 Smallest overlap matrix eigenvalue = 3.24E-03

  Scale SEOQF with 1.000000e-02/1.000000e+00/1.000000e+00

 Standard Electronic Orientation quadrupole field applied
 Nucleus-field energy     =     0.0000000399 hartrees
 Guess from superposition of atomic densities
 Warning:  Energy on first SCF cycle will be non-variational
 A restricted hybrid HF-DFT SCF calculation will be
 performed using Pulay DIIS extrapolation
 Exchange:     0.2000 Hartree-Fock + 0.0800 Slater + 0.7200 Becke88
 Correlation:  0.8100 LYP + 0.1900 VWN1RPA
 Using SG-1 standard quadrature grid
 SCF converges when DIIS error is below 1.0E-08
 ---------------------------------------
  Cycle       Energy         DIIS Error
 ---------------------------------------
    1   -1081.5047995196      4.00E-02
    2   -1077.7279869775      4.16E-03
    3   -1077.6390286156      5.03E-03
    4   -1077.9994364993      6.85E-04
    5   -1078.0049576325      2.34E-04
    6   -1078.0057854813      3.30E-05
    7   -1078.0057962150      1.89E-05
    8   -1078.0058010011      3.10E-06
    9   -1078.0058011212      9.60E-07
   10   -1078.0058011371      1.81E-07
   11   -1078.0058011372      9.20E-08
   12   -1078.0058011371      1.16E-08
   13   -1078.0058011373      5.94E-09 Convergence criterion met
 ---------------------------------------
 SCF time:  CPU 90.56 s  wall 90.93 s
 SCF   energy in the final basis set = -1078.0058011373
 Total energy in the final basis set = -1078.0058011373
 Analysis of SCF Wavefunction
 
 --------------------------------------------------------------
 
                    Orbital Energies (a.u.)
 --------------------------------------------------------------
 
 Alpha MOs
 -- Occupied --
-19.158 -19.157 -19.157 -19.156 -19.156 -19.151 -19.151 -10.235
-10.235 -10.235 -10.235 -10.235 -10.235 -10.234 -10.234 -10.233
-10.233 -10.233 -10.232 -10.231 -10.180  -1.051  -1.048  -1.045
 -1.041  -1.038  -1.035  -1.022  -0.790  -0.780  -0.766  -0.748
 -0.725  -0.702  -0.682  -0.618  -0.611  -0.608  -0.605  -0.603
 -0.600  -0.598  -0.520  -0.517  -0.514  -0.510  -0.507  -0.500
 -0.494  -0.487  -0.476  -0.472  -0.471  -0.460  -0.454  -0.452
 -0.445  -0.437  -0.434  -0.423  -0.414  -0.408  -0.395  -0.387
 -0.381  -0.378  -0.365  -0.362  -0.351  -0.346  -0.344  -0.332
 -0.325  -0.324  -0.322  -0.322  -0.321  -0.318  -0.270  -0.268
 -0.266  -0.264  -0.261  -0.259  -0.256
 -- Virtual --
  0.056   0.070   0.081   0.085   0.087   0.091   0.091   0.115
  0.124   0.128   0.129   0.130   0.135   0.137   0.141   0.143
  0.148   0.153   0.156   0.160   0.167   0.169   0.173   0.177
  0.180   0.187   0.193   0.194   0.196   0.197   0.202   0.204
  0.205   0.207   0.208   0.209   0.210   0.224   0.227   0.231
  0.238   0.242   0.247   0.254   0.263   0.265   0.266   0.298
  0.334   0.365   0.466   0.480   0.497   0.517   0.536   0.543
  0.549   0.556   0.561   0.563   0.564   0.570   0.576   0.580
  0.581   0.585   0.589   0.590   0.592   0.594   0.598   0.603
  0.606   0.610   0.637   0.647   0.660   0.662   0.675   0.683
  0.685   0.689   0.718   0.738   0.744   0.745   0.747   0.749
  0.755   0.760   0.785   0.792   0.794   0.801   0.802   0.807
  0.816   0.817   0.824   0.826   0.835   0.845   0.848   0.861
  0.864   0.866   0.876   0.880   0.886   0.892   0.897   0.906
  0.911   0.912   0.917   0.919   0.924   0.928   0.930   0.939
  0.942   0.946   0.954   0.959   0.961   0.976   0.981   0.999
  1.008   1.016   1.087   1.090   1.106   1.127   1.142   1.150
  1.158   1.170   1.177   1.181   1.190   1.194   1.198   1.220
  1.253   1.324   1.345   1.365   1.370   1.377   1.390   1.391
  1.392   1.396   1.399   1.403   1.410   1.417   1.425   1.433
  1.437   1.446   1.452   1.496   1.522   1.523   1.528   1.532
  1.533   1.540   1.554   1.594   1.648   1.707   1.715   1.746
  1.786   1.820   1.823   1.830   1.832   1.841   1.848   1.851
  1.859   1.871   1.877   1.885   1.887   1.900   1.917   1.921
  1.938   1.946   1.956   1.973   1.995   2.013   2.018   2.023
  2.031   2.034   2.039   2.040   2.044   2.049   2.056   2.063
  2.066   2.080   2.091   2.111   2.117   2.148   2.151   2.155
  2.156   2.160   2.161   2.164   2.166   2.179   2.192   2.200
  2.216   2.226   2.246   2.252   2.259   2.299   2.311   2.329
  2.333   2.354   2.371   2.383   2.386   2.396   2.423   2.473
  2.482   2.490   2.503   2.514   2.520   2.522   2.552   2.569
  2.573   2.602   2.674   2.682   2.693   2.695   2.705   2.714
  2.723   2.737   2.761   2.791   2.807   2.838   2.889   3.020
  3.036   3.064   3.065   3.093   3.094   3.718   3.823   3.886
  3.973   4.066   4.142   4.176   4.198   4.207   4.217   4.219
  4.223   4.226   4.232   4.378   4.390   4.413   4.442   4.471
  4.495   4.511
 --------------------------------------------------------------
 
          Ground-State Mulliken Net Atomic Charges

     Atom                 Charge (a.u.)
  ----------------------------------------
      1 C                    -0.022154
      2 C                    -0.022109
      3 O                    -0.482956
      4 C                    -0.021760
      5 C                    -0.022420
      6 O                    -0.482527
      7 C                    -0.022095
      8 C                    -0.021589
      9 O                    -0.483034
     10 C                    -0.022137
     11 C                    -0.023459
     12 O                    -0.478428
     13 C                    -0.010045
     14 C                    -0.061046
     15 O                    -0.482673
     16 C                    -0.022897
     17 C                    -0.022293
     18 O                    -0.469375
     19 C                     0.000424
     20 C                    -0.449798
     21 O                    -0.600926
     22 H                     0.130931
     23 H                     0.131586
     24 H                     0.131235
     25 H                     0.131740
     26 H                     0.131984
     27 H                     0.131392
     28 H                     0.131301
     29 H                     0.131897
     30 H                     0.131874
     31 H                     0.131007
     32 H                     0.131425
     33 H                     0.131666
     34 H                     0.130325
     35 H                     0.132790
     36 H                     0.132163
     37 H                     0.128753
     38 H                     0.134745
     39 H                     0.106329
     40 H                     0.127587
     41 H                     0.155653
     42 H                     0.132085
     43 H                     0.130773
     44 H                     0.127374
     45 H                     0.129054
     46 H                     0.119846
     47 H                     0.119470
     48 H                     0.154062
     49 H                     0.140547
     50 H                     0.154177
     51 H                     0.389524
  ----------------------------------------
  Sum of atomic charges =     0.000000

 -----------------------------------------------------------------
                    Cartesian Multipole Moments
 -----------------------------------------------------------------
    Charge (ESU x 10^10)
                 0.0000
    Dipole Moment (Debye)
         X       0.9364      Y       0.0921      Z      -1.1424
       Tot       1.4800
    Quadrupole Moments (Debye-Ang)
        XX    -130.9553     XY      11.6039     YY    -131.8315
        XZ      18.8453     YZ       1.6126     ZZ    -125.3459
    Octopole Moments (Debye-Ang^2)
       XXX     336.0495    XXY      20.7122    XYY     -18.5904
       YYY      -0.8988    XXZ    -182.2262    XYZ     -13.0643
       YYZ      -0.7360    XZZ     -32.4484    YZZ      -1.3526
       ZZZ      -2.8822
    Hexadecapole Moments (Debye-Ang^3)
      XXXX  -42074.3941   XXXY    1428.7733   XXYY   -6863.8480
      XYYY      -9.2840   YYYY    -402.3453   XXXZ    2672.6960
      XXYZ     186.0890   XYYZ       5.3495   YYYZ       1.9380
      XXZZ   -6450.9991   XYZZ       4.2612   YYZZ    -102.0776
      XZZZ       9.4759   YZZZ       0.9189   ZZZZ    -252.6434
 -----------------------------------------------------------------
 Calculating analytic gradient of the SCF energy
         cpu   0.10 wall   0.10
 Gradient of Coulomb and Exchange Energy
            1           2           3           4           5           6
    1  -2.1513969   0.8198717  -0.5634986  -1.5305881   1.3617285   0.2139780
    2   3.2262378  -2.9946266   9.8464284  -2.9274385   3.1599012  -9.5014563
    3   0.2879376   0.4998974   0.3061881   0.5736482  -0.3233922   1.1335156
            7           8           9          10          11          12
    1  -0.9643963   1.8673644   1.2199661  -0.2062995   2.7843531   2.8931635
    2   3.1761667  -3.0520070   9.5867271  -3.1552915   3.2339851  -9.7764436
    3  -0.4231888   0.1240827  -1.9329822   0.0485764  -0.4783847   0.0362201
           13          14          15          16          17          18
    1   2.8819691   4.1855964  -1.3965892  -0.4261510  -3.1160446  -4.6474352
    2   3.4033471  -2.2225168  -9.5650503   3.3011301  -3.4105413   9.3889781
    3   0.0815075   0.1932055   1.1344273   0.4712857  -0.2792137   0.9503891
           19          20          21          22          23          24
    1  -5.0244362  -7.6937059  13.8275149   0.0898437   0.2919754  -0.3904322
    2  -3.8304862   1.1039371   2.3189408   3.4072736   3.0953436  -3.0801019
    3  -0.9272600  -0.7372759  -3.6852502   4.7740010  -4.9463057   5.0465920
           25          26          27          28          29          30
    1  -0.4259160   0.5593624   0.1836604  -0.6773005  -0.0697470   0.1270631
    2  -3.4474918  -2.7421583  -3.8081564   2.7983629   3.7877440   2.5677900
    3  -4.7708513   5.2910864  -4.5473622  -5.2204419   4.6316191  -5.3768340
           31          32          33          34          35          36
    1   0.7303129  -0.0849388  -0.5497189   0.5328242   0.3878256  -0.0015926
    2   3.9391171  -2.5669785  -3.9000955  -2.8371148  -3.5955320   2.7263278
    3   4.3849892   5.3073093  -4.4110397   5.0028527  -4.5812440  -5.0187223
           37          38          39          40          41          42
    1  -0.1660959   0.9641337   0.4592294   0.4292708   0.5932525  -0.9730668
    2   3.5642002   2.6647582   3.1527611  -2.9320324  -3.6876294   2.8331932
    3   4.3706573  -4.6608350   4.1259537   4.1560420  -4.0940788   4.9116795
           43          44          45          46          47          48
    1  -0.3452006   0.6240810  -0.3606884  -0.4554979  -1.4763398  -0.3952785
    2   3.4746665  -2.8103017  -3.3225011  -2.2384609  -3.2979379   3.1751346
    3  -4.4905396  -4.6695720   4.4244756  -4.4860917   3.5125426  -3.5251650
           49          50          51
    1  -3.8413921  -1.3753114   1.2807181
    2  -2.3037946   2.1820126   1.8916803
    3  -0.7971704   4.0105784   4.5919413
 Gradient of SCF Energy
            1           2           3           4           5           6
    1   0.0116126  -0.0115238   0.0000493   0.0115910  -0.0119689   0.0000444
    2   0.0062679  -0.0061283  -0.0035697  -0.0058892   0.0061422   0.0029188
    3   0.0003340   0.0007775  -0.0016475   0.0007523   0.0005330  -0.0002106
            7           8           9          10          11          12
    1   0.0119971  -0.0118157  -0.0000127   0.0114725  -0.0119425  -0.0030176
    2   0.0058788  -0.0060058  -0.0030530  -0.0063260   0.0054279   0.0055429
    3  -0.0020242   0.0013371   0.0020384  -0.0001548  -0.0018993   0.0017327
           13          14          15          16          17          18
    1   0.0087013  -0.0084850   0.0005477  -0.0122578   0.0115390   0.0036824
    2  -0.0037566  -0.0175090   0.0031163   0.0055360  -0.0050193  -0.0056231
    3  -0.0010398   0.0022535  -0.0024285   0.0005636   0.0018558  -0.0011195
           19          20          21          22          23          24
    1  -0.0169182  -0.0054237   0.0146449  -0.0016138  -0.0022764   0.0019247
    2   0.0007254   0.0066622   0.0135903  -0.0004592   0.0001130  -0.0000454
    3  -0.0019742   0.0002321   0.0179621  -0.0092541   0.0094853  -0.0093191
           25          26          27          28          29          30
    1   0.0021153  -0.0018007  -0.0022258   0.0024573   0.0015156  -0.0014445
    2   0.0005226  -0.0009984   0.0014969   0.0005970  -0.0008743   0.0012021
    3   0.0094860  -0.0092249   0.0094816   0.0093225  -0.0093494   0.0094147
           31          32          33          34          35          36
    1  -0.0026443   0.0017584   0.0023492  -0.0025497  -0.0015898   0.0016160
    2  -0.0015294  -0.0010349   0.0014776  -0.0000753   0.0007273   0.0007993
    3  -0.0091591  -0.0096033   0.0091916  -0.0095601   0.0092922   0.0093194
           37          38          39          40          41          42
    1   0.0023525  -0.0011230  -0.0023005  -0.0038915   0.0016231   0.0019047
    2  -0.0011092   0.0003249   0.0004599   0.0028124   0.0068240   0.0007840
    3  -0.0092320   0.0096515  -0.0080485  -0.0080361   0.0069405  -0.0090837
           43          44          45          46          47          48
    1   0.0020420  -0.0029925  -0.0006008   0.0035809   0.0057262  -0.0024528
    2  -0.0012936  -0.0001158   0.0002153  -0.0017871   0.0007331  -0.0056830
    3   0.0095732   0.0092758  -0.0093109   0.0092074  -0.0081217   0.0081291
           49          50          51
    1   0.0068035  -0.0001554  -0.0006243
    2   0.0065658  -0.0033775  -0.0062009
    3   0.0017653  -0.0095792  -0.0205279
 Max gradient component =       2.053E-02
 RMS gradient           =       6.572E-03
 Gradient time:  CPU 33.16 s  wall 33.34 s
 Geometry Optimization Parameters
   NAtoms,    NIC,     NZ,  NCons,   NDum,   NFix, NCnnct, MaxDiis
       51     345       0       0       0       0       0       0


** GEOMETRY OPTIMIZATION IN DELOCALIZED INTERNAL COORDINATES **
   Searching for a Minimum

   Optimization Cycle:   1

                       Coordinates (Angstroms)
     ATOM                X               Y               Z
      1  C         4.7509904149   -0.4826129386   -0.2343108550
      2  C         3.5018776725    0.3887021882   -0.2728562079
      3  O         2.3575289158   -0.4376114225   -0.2370549111
      4  C         1.1997368342    0.3701737393   -0.2496485518
      5  C        -0.0303713061   -0.5130784108   -0.0822036230
      6  O        -1.1789596589    0.3062785333   -0.0921657753
      7  C        -2.3309290415   -0.4880034342    0.0894852143
      8  C        -3.5580761701    0.4133642044    0.0387089600
      9  O        -4.7185484661   -0.3720003074    0.2079927856
     10  C        -5.8584111769    0.4580030034    0.1385116627
     11  C        -7.1104264128   -0.4069691124    0.2060641459
     12  O        -8.2459544870    0.4274284780    0.1222985724
     13  C        -9.4133417085   -0.3647326618    0.1066683383
     14  C       -10.6274617230    0.5500581584   -0.0215610644
     15  O         5.8868771328    0.3544002137   -0.2408382076
     16  C         7.0572905223   -0.4318613335   -0.1763181276
     17  C         8.2581270813    0.4897390594   -0.0030307228
     18  O         9.4322382911   -0.2899097587    0.0675090698
     19  C        10.5378921887    0.5501514687    0.3198042982
     20  C        11.8005720505   -0.2958422395    0.3752908503
     21  O       -11.8100250583   -0.2026218577   -0.0195403114
     22  H         4.7437643663   -1.1463173826   -1.1293769664
     23  H         4.7123866701   -1.0884014929    0.7003894350
     24  H         3.5262392344    0.9890318494   -1.2114126763
     25  H         3.5310762209    1.0583441493    0.6176330325
     26  H         1.1131405633    0.9092739508   -1.2207606791
     27  H         1.2079966299    1.0955053329    0.5970733655
     28  H         0.0627145831   -1.0513428362    0.8892842915
     29  H        -0.0550648551   -1.2377042224   -0.9282847418
     30  H        -2.3104037863   -0.9907874193    1.0836986573
     31  H        -2.4241464544   -1.2416104669   -0.7263159539
     32  H        -3.5651156837    0.9187494626   -0.9548009550
     33  H        -3.4694883096    1.1655632190    0.8563681729
     34  H        -5.8879427314    1.0152722299   -0.8267786487
     35  H        -5.8768941358    1.1682368272    0.9968358221
     36  H        -7.1014737724   -0.9613115873    1.1724717387
     37  H        -7.0761338611   -1.1187375822   -0.6511428563
     38  H        -9.5108577543   -0.9396843728    1.0559810062
     39  H        -9.4121281999   -1.0541371569   -0.7688227674
     40  H       -10.5602047114    1.1644298203   -0.9487031027
     41  H       -10.6554552409    1.2531646699    0.8378658591
     42  H         7.1871337300   -1.0106311636   -1.1189699780
     43  H         7.0337295378   -1.1193473617    0.7011833905
     44  H         8.1065699768    1.0670697467    0.9388433415
     45  H         8.2984189869    1.1786948513   -0.8778195347
     46  H        10.4297289277    1.0620820426    1.3034012172
     47  H        10.6637163854    1.2976088020   -0.4967600539
     48  H        11.7175451608   -1.0505603443    1.1861420331
     49  H        12.6793379024    0.3528039161    0.5762787177
     50  H        11.9520022641   -0.8177962753   -0.5933767145
     51  H       -11.9102603531   -0.5777223799   -0.9333601346
   Point Group: c1    Number of degrees of freedom:   147


   Energy is  -1078.005801137


 Attempting to Generate Delocalized Internal Coordinates
 GETINT wrote B to file, NVib is          147
 calling HSSCONV
 HCONV 3*NATOMS:          153
 wrote HINT to file
  writing hessian 

147 Hessian modes will be used to form the next step
  Hessian Eigenvalues:
     0.005796    0.006056    0.006058    0.006074    0.006075    0.006104
     0.006414    0.014064    0.014085    0.014092    0.014109    0.014129
     0.014133    0.014148    0.014169    0.014191    0.014193    0.014201
     0.014207    0.015410    0.051413    0.054648    0.054685    0.054699
     0.054782    0.054788    0.054988    0.055096    0.055108    0.055169
     0.055235    0.055261    0.055286    0.058776    0.059141    0.059678
     0.062686    0.062784    0.062784    0.062804    0.062837    0.062859
     0.062861    0.062898    0.062911    0.062914    0.062915    0.063311
     0.109876    0.109896    0.109911    0.109942    0.109950    0.109997
     0.110008    0.110239    0.110266    0.110319    0.110326    0.110349
     0.114959    0.136310    0.136332    0.136345    0.136396    0.136424
     0.136437    0.136543    0.136645    0.136649    0.136709    0.136716
     0.136726    0.138574    0.160000    0.160000    0.160000    0.160000
     0.219944    0.221152    0.221174    0.221176    0.221187    0.221199
     0.221227    0.221231    0.221231    0.221251    0.221266    0.221275
     0.221278    0.250000    0.250000    0.250000    0.250000    0.250000
     0.250000    0.298361    0.300216    0.300230    0.300349    0.300357
     0.300559    0.302798    0.320679    0.320772    0.320774    0.320816
     0.321057    0.321088    0.321220    0.321232    0.321248    0.321266
     0.321271    0.321390    0.321443    0.321473    0.321485    0.321534
     0.321545    0.321548    0.321569    0.321651    0.321659    0.321672
     0.321690    0.321713    0.322068    0.325109    0.325211    0.325246
     0.325397    0.436957    0.437208    0.437284    0.437484    0.437719
     0.437767    0.437947    0.438204    0.438455    0.438478    0.438574
     0.438654    0.453268    0.489620

 Minimum Search - Taking Simple RFO Step
 Searching for Lamda that Minimizes Along All modes
 Value Taken    Lamda =  -0.02380518
 Calculated Step too Large.  Step scaled by  0.888991
 Step Taken.  Stepsize is  0.300000

                             Maximum     Tolerance    Cnvgd?
         Gradient           0.045407      0.000300      NO
         Displacement       0.165800      0.001200      NO
         Energy change     *********      0.000001      NO


 New Cartesian Coordinates Obtained by Inverse Iteration

 Displacement from previous Coordinates is:  1.218187
 ----------------------------------------------------------------
             Standard Nuclear Orientation (Angstroms)
    I     Atom           X                Y                Z
 ----------------------------------------------------------------
    1      C       4.7354580751    -0.4658945885    -0.1911771881
    2      C       3.5376964263     0.4794509241    -0.2285737585
    3      O       2.3620555644    -0.3070816774    -0.1958442277
    4      C       1.1828128179     0.4740455234    -0.2164681905
    5      C      -0.0070690324    -0.4687200534    -0.0583138511
    6      O      -1.1836203178     0.3159384666    -0.0772282048
    7      C      -2.3560976179    -0.4569102858     0.0914551779
    8      C      -3.5515887822     0.4886999584     0.0127934265
    9      O      -4.7273751052    -0.2814966364     0.1720969550
   10      C      -5.9044217853     0.4996233877     0.0946646966
   11      C      -7.1009908487    -0.4437075901     0.1842640081
   12      O      -8.2773636732     0.3367690304     0.0889556834
   13      C      -9.4589749923    -0.4436174237     0.0965224047
   14      C     -10.6689742199     0.4821042434    -0.0402555237
   15      O       5.9081800947     0.3244132167    -0.1931678846
   16      C       7.0903851132    -0.4519476992    -0.1455938682
   17      C       8.2711563208     0.5017724891     0.0141388018
   18      O       9.4532629176    -0.2734229377     0.0675786433
   19      C      10.6120946758     0.5078459442     0.2956480406
   20      C      11.8334317619    -0.4063696277     0.3132523275
   21      O     -11.8821569843    -0.2494106736     0.0039840478
   22      H       4.7071117249    -1.1323966295    -1.0705888269
   23      H       4.6808724803    -1.0853175395     0.7205951156
   24      H       3.5792562645     1.0894140698    -1.1474372871
   25      H       3.5823821037     1.1550788056     0.6430668513
   26      H       1.0930337350     1.0236307392    -1.1692687996
   27      H       1.1770244335     1.2048103106     0.6108025044
   28      H       0.0868631062    -1.0162288485     0.8952290278
   29      H      -0.0110051777    -1.2008534474    -0.8844267538
   30      H      -2.3522427678    -0.9671941022     1.0700181625
   31      H      -2.4417098058    -1.2196420268    -0.7016443250
   32      H      -3.5455389501     1.0003772890    -0.9650642090
   33      H      -3.4704178152     1.2505866635     0.8072742956
   34      H      -5.9497226122     1.0507728385    -0.8604258795
   35      H      -5.9466817711     1.2290770339     0.9220206353
   36      H      -7.0693523930    -0.9913964389     1.1419150812
   37      H      -7.0465923945    -1.1759638680    -0.6401183483
   38      H      -9.5504112911    -1.0114439796     1.0377241410
   39      H      -9.4520828975    -1.1605730245    -0.7457609580
   40      H     -10.5768201585     1.0785529061    -0.9638991975
   41      H     -10.6859064035     1.1902580161     0.7983723527
   42      H       7.2100267425    -1.0384283882    -1.0727106414
   43      H       7.0719277043    -1.1490795558     0.7098188971
   44      H       8.1378679358     1.0864744975     0.9409551181
   45      H       8.2985806913     1.2015246515    -0.8394965536
   46      H      10.5260076724     1.0362695331     1.2618655625
   47      H      10.7218806879     1.2631885942    -0.5026355819
   48      H      11.7437373262    -1.1574721434     1.1082728978
   49      H      12.7425581900     0.1823607133     0.4917549269
   50      H      11.9398747928    -0.9290721306    -0.6457299186
   51      H     -12.0178643763    -0.6566041346    -0.8696399487
 ----------------------------------------------------------------
 Molecular Point Group                 C1    NOp =  1
 Largest Abelian Subgroup              C1    NOp =  1
 Nuclear Repulsion Energy =  1527.2359140115 hartrees
 There are       85 alpha and       85 beta electrons
 Applying Cartesian multipole field
    Component          Value
    ---------          -----
     (2,0,0)        1.00000E-12
     (0,2,0)        2.00000E-10
     (0,0,2)       -3.00000E-10
 Nucleus-field energy     =     0.0000000443 hartrees
 Requested basis set is 6-31G(d)
 There are 144 shells and 375 basis functions
 A cutoff of  1.0D-11 yielded   4017 shell pairs
 There are     27399 function pairs
         cpu   0.02 wall   0.02
 Smallest overlap matrix eigenvalue = 3.34E-03
 Guess MOs from SCF MO coefficient file
Reading MOs from coefficient file
GuessMan calls MO2Den with 85 electrons (IDen = 0)
Reading MOs from coefficient file
GuessMan calls MO2Den with 85 electrons (IDen = 1)
 A restricted hybrid HF-DFT SCF calculation will be
 performed using Pulay DIIS extrapolation
 Exchange:     0.2000 Hartree-Fock + 0.0800 Slater + 0.7200 Becke88
 Correlation:  0.8100 LYP + 0.1900 VWN1RPA
 Using SG-1 standard quadrature grid
 SCF converges when DIIS error is below 1.0E-08
Geometry optimization detected.  Setting ReadMinima to 0
Setting SaveMinima to 0
 ---------------------------------------
  Cycle       Energy         DIIS Error
 ---------------------------------------
    1   -1078.0899474941      1.08E-03
    2   -1078.0173894494      2.23E-04
    3   -1078.0169938767      3.04E-04
    4   -1078.0181794101      2.68E-05
    5   -1078.0181886466      9.43E-06
    6   -1078.0181899222      3.21E-06
    7   -1078.0181900577      1.20E-06
    8   -1078.0181900770      2.21E-07
    9   -1078.0181900768      6.87E-08
   10   -1078.0181900775      1.78E-08
   11   -1078.0181900767      5.88E-09 Convergence criterion met
 ---------------------------------------
 SCF time:  CPU 77.69 s  wall 77.89 s
 SCF   energy in the final basis set = -1078.0181900767
 Total energy in the final basis set = -1078.0181900767
 Analysis of SCF Wavefunction
 
 --------------------------------------------------------------
 
                    Orbital Energies (a.u.)
 --------------------------------------------------------------
 
 Alpha MOs
 -- Occupied --
-19.154 -19.153 -19.153 -19.153 -19.152 -19.149 -19.146 -10.234
-10.234 -10.233 -10.233 -10.233 -10.233 -10.233 -10.232 -10.232
-10.232 -10.232 -10.231 -10.229 -10.178  -1.046  -1.043  -1.039
 -1.035  -1.031  -1.028  -1.019  -0.790  -0.781  -0.767  -0.748
 -0.726  -0.702  -0.680  -0.624  -0.615  -0.610  -0.607  -0.605
 -0.602  -0.600  -0.520  -0.518  -0.510  -0.509  -0.504  -0.496
 -0.492  -0.484  -0.474  -0.470  -0.469  -0.459  -0.454  -0.451
 -0.445  -0.438  -0.434  -0.421  -0.415  -0.407  -0.395  -0.388
 -0.383  -0.378  -0.366  -0.364  -0.353  -0.346  -0.346  -0.333
 -0.327  -0.323  -0.320  -0.319  -0.318  -0.314  -0.272  -0.266
 -0.263  -0.260  -0.257  -0.255  -0.252
 -- Virtual --
  0.062   0.070   0.081   0.091   0.092   0.095   0.095   0.119
  0.129   0.132   0.133   0.134   0.138   0.139   0.143   0.146
  0.150   0.154   0.158   0.162   0.168   0.169   0.174   0.177
  0.181   0.187   0.193   0.196   0.197   0.198   0.203   0.207
  0.207   0.209   0.210   0.211   0.212   0.222   0.224   0.233
  0.238   0.240   0.247   0.252   0.260   0.262   0.266   0.297
  0.332   0.362   0.468   0.482   0.499   0.519   0.533   0.541
  0.544   0.553   0.554   0.556   0.562   0.568   0.572   0.575
  0.579   0.580   0.581   0.582   0.584   0.586   0.588   0.589
  0.590   0.607   0.633   0.651   0.656   0.663   0.665   0.672
  0.676   0.688   0.721   0.737   0.741   0.744   0.748   0.750
  0.758   0.764   0.783   0.795   0.800   0.807   0.810   0.814
  0.823   0.824   0.829   0.831   0.839   0.846   0.854   0.867
  0.870   0.872   0.884   0.890   0.893   0.896   0.899   0.906
  0.917   0.920   0.921   0.925   0.933   0.935   0.937   0.940
  0.947   0.950   0.959   0.964   0.964   0.972   0.978   0.995
  1.007   1.012   1.089   1.096   1.106   1.130   1.156   1.159
  1.165   1.181   1.187   1.190   1.196   1.199   1.204   1.228
  1.256   1.318   1.333   1.348   1.357   1.374   1.387   1.393
  1.396   1.401   1.405   1.408   1.414   1.417   1.423   1.429
  1.439   1.449   1.454   1.498   1.531   1.534   1.537   1.539
  1.542   1.544   1.555   1.593   1.650   1.708   1.713   1.748
  1.788   1.818   1.823   1.829   1.835   1.837   1.838   1.843
  1.853   1.856   1.864   1.872   1.891   1.898   1.916   1.921
  1.926   1.943   1.952   1.970   1.992   2.013   2.017   2.021
  2.026   2.028   2.031   2.035   2.040   2.045   2.049   2.050
  2.069   2.071   2.094   2.097   2.122   2.146   2.153   2.156
  2.158   2.158   2.159   2.166   2.174   2.178   2.189   2.211
  2.222   2.239   2.242   2.253   2.271   2.287   2.300   2.322
  2.327   2.352   2.368   2.377   2.388   2.393   2.440   2.471
  2.493   2.505   2.520   2.528   2.536   2.537   2.540   2.559
  2.567   2.594   2.668   2.676   2.680   2.689   2.693   2.700
  2.739   2.750   2.771   2.793   2.815   2.848   2.890   3.012
  3.025   3.051   3.055   3.083   3.084   3.713   3.819   3.878
  3.962   4.051   4.127   4.175   4.192   4.208   4.219   4.220
  4.223   4.227   4.229   4.387   4.398   4.419   4.446   4.474
  4.499   4.516
 --------------------------------------------------------------
 
          Ground-State Mulliken Net Atomic Charges

     Atom                 Charge (a.u.)
  ----------------------------------------
      1 C                    -0.020831
      2 C                    -0.021361
      3 O                    -0.490684
      4 C                    -0.021079
      5 C                    -0.021401
      6 O                    -0.490507
      7 C                    -0.021094
      8 C                    -0.021076
      9 O                    -0.490812
     10 C                    -0.021244
     11 C                    -0.021381
     12 O                    -0.487143
     13 C                    -0.014936
     14 C                    -0.059556
     15 O                    -0.490781
     16 C                    -0.021712
     17 C                    -0.021513
     18 O                    -0.478877
     19 C                     0.000125
     20 C                    -0.453696
     21 O                    -0.609224
     22 H                     0.132461
     23 H                     0.133110
     24 H                     0.132807
     25 H                     0.133217
     26 H                     0.133531
     27 H                     0.132823
     28 H                     0.132903
     29 H                     0.133452
     30 H                     0.133604
     31 H                     0.132527
     32 H                     0.133051
     33 H                     0.133418
     34 H                     0.132074
     35 H                     0.134366
     36 H                     0.134169
     37 H                     0.130626
     38 H                     0.135151
     39 H                     0.108148
     40 H                     0.132704
     41 H                     0.159505
     42 H                     0.133724
     43 H                     0.132315
     44 H                     0.128858
     45 H                     0.130377
     46 H                     0.119941
     47 H                     0.119566
     48 H                     0.157494
     49 H                     0.143191
     50 H                     0.157574
     51 H                     0.392098
  ----------------------------------------
  Sum of atomic charges =     0.000000

 -----------------------------------------------------------------
                    Cartesian Multipole Moments
 -----------------------------------------------------------------
    Charge (ESU x 10^10)
                 0.0000
    Dipole Moment (Debye)
         X       1.0132      Y       0.0010      Z      -1.1500
       Tot       1.5326
    Quadrupole Moments (Debye-Ang)
        XX    -129.1624     XY      11.8209     YY    -129.7963
        XZ      18.6272     YZ       1.5438     ZZ    -125.8944
    Octopole Moments (Debye-Ang^2)
       XXX     360.9778    XXY       2.7296    XYY     -20.2499
       YYY      -2.9558    XXZ    -184.9550    XYZ     -14.0835
       YYZ      -1.1306    XZZ     -30.4004    YZZ      -1.9217
       ZZZ      -3.2313
    Hexadecapole Moments (Debye-Ang^3)
      XXXX  -41783.1474   XXXY    1461.5175   XXYY   -6829.0597
      XYYY     -21.8703   YYYY    -407.0774   XXXZ    2699.7887
      XXYZ     197.5295   XYYZ       1.6198   YYYZ       5.1832
      XXZZ   -6540.2450   XYZZ      -1.0035   YYZZ    -100.7592
      XZZZ      -7.7392   YZZZ       3.8142   ZZZZ    -240.5910
 -----------------------------------------------------------------
 Calculating analytic gradient of the SCF energy
         cpu   0.09 wall   0.09
 Gradient of Coulomb and Exchange Energy
            1           2           3           4           5           6
    1  -1.5748548   0.2505958  -0.5092639  -0.9962530   0.8185511   0.2571361
    2   3.3755398  -3.2804268   8.7895543  -3.2148283   3.2750694  -8.6828527
    3   0.2290165   0.4415936   0.1830036   0.5486263  -0.2932082   1.0462396
            7           8           9          10          11          12
    1  -0.4428076   1.3718060   1.0920116   0.3805229   2.1918078   2.9878737
    2   3.2695413  -3.2750362   8.6005134  -3.3674608   3.3710832  -8.7122954
    3  -0.5184818   0.2744683  -1.7285130   0.1190151  -0.5630638   0.3169900
           13          14          15          16          17          18
    1   3.1878139   4.2984841  -1.5274976  -0.8657451  -2.6718552  -4.3917116
    2   2.9791573  -2.1342367  -8.7067416   3.3915488  -3.5407250   8.4146019
    3   0.0584668   0.5374154   0.8522215   0.4572968  -0.2084461   0.8329630
           19          20          21          22          23          24
    1  -5.8255350  -7.5357831  13.7198749   0.0831133   0.2424084  -0.3605850
    2  -3.3073051   1.4460345   1.9811472   3.6041962   3.3620288  -3.3338506
    3  -0.9104792  -0.5437045  -4.0111518   4.5643489  -4.7240334   4.8222705
           25          26          27          28          29          30
    1  -0.3834448   0.4747852   0.1197316  -0.5604007  -0.0477195   0.0883485
    2  -3.6762720  -3.0184184  -4.0274285   3.0491733   4.0084439   2.8205978
    3  -4.5450350   5.0835754  -4.3055804  -5.0350152   4.3739928  -5.1934829
           31          32          33          34          35          36
    1   0.5625351  -0.0378803  -0.3907052   0.4751653   0.4112277  -0.0036009
    2   4.1599826  -2.8256617  -4.1338171  -2.9948332  -3.8719964   2.8958863
    3   4.1273205   5.1274310  -4.1469764   4.8656617  -4.2679727  -4.8751523
           37          38          39          40          41          42
    1  -0.1440160   0.9008003   0.3512721   0.1728111   0.5815461  -0.8290166
    2   3.8381705   2.7826987   3.4102358  -2.9261282  -3.7553983   3.0663881
    3   4.0879470  -4.5003518   3.8306045   4.1236229  -4.0362195   4.7248419
           43          44          45          46          47          48
    1  -0.2408769   0.4331427  -0.3718404  -0.3761723  -1.2093045  -0.4360413
    2   3.6967170  -3.0273279  -3.5505414  -2.4503487  -3.4353467   3.2606797
    3  -4.2595854  -4.5112003   4.1793699  -4.2632359   3.3289886  -3.4368690
           49          50          51
    1  -3.9877906  -1.2573994   1.5247360
    2  -2.0271207   2.2870313   2.1403777
    3  -0.7001029   3.9853819   4.4551872
 Gradient of SCF Energy
            1           2           3           4           5           6
    1   0.0026716  -0.0026860   0.0000540   0.0027307  -0.0029898   0.0000819
    2  -0.0005960   0.0005956  -0.0000510   0.0008441  -0.0007984  -0.0001283
    3   0.0005027   0.0003189  -0.0008460   0.0002937   0.0003249   0.0000604
            7           8           9          10          11          12
    1   0.0029114  -0.0028079   0.0001642   0.0028530  -0.0023825   0.0010267
    2  -0.0007330   0.0005543   0.0002698   0.0003370  -0.0004217  -0.0002281
    3  -0.0001417  -0.0003443   0.0006619  -0.0002776  -0.0004742   0.0010038
           13          14          15          16          17          18
    1   0.0011148  -0.0045781   0.0000153  -0.0030309   0.0017184   0.0017619
    2  -0.0012390  -0.0050134  -0.0001729  -0.0005665   0.0009917   0.0007639
    3  -0.0004388   0.0010748  -0.0010912   0.0004092   0.0005135  -0.0001923
           19          20          21          22          23          24
    1  -0.0044823   0.0014553   0.0029360   0.0000189  -0.0001153   0.0001323
    2   0.0019338   0.0002591   0.0020106   0.0004164   0.0005838  -0.0004549
    3   0.0000059   0.0001907   0.0034130  -0.0020141   0.0019880  -0.0019491
           25          26          27          28          29          30
    1   0.0002238  -0.0000788  -0.0003843   0.0002584  -0.0000811   0.0001548
    2  -0.0004478  -0.0008196  -0.0001518   0.0006435   0.0004065   0.0007511
    3   0.0020405  -0.0019559   0.0019455   0.0018665  -0.0020846   0.0019304
           31          32          33          34          35          36
    1  -0.0002826   0.0001852   0.0001622  -0.0002267  -0.0001290  -0.0000502
    2   0.0002450  -0.0007030  -0.0002227  -0.0005014  -0.0003949   0.0007069
    3  -0.0020087  -0.0019194   0.0020553  -0.0018698   0.0021282   0.0020252
           37          38          39          40          41          42
    1   0.0002983  -0.0003503  -0.0004322  -0.0000806   0.0006789   0.0000178
    2   0.0002794   0.0011634   0.0010768   0.0011066   0.0021127   0.0008034
    3  -0.0020261   0.0018882  -0.0018648  -0.0015710   0.0009514  -0.0020413
           43          44          45          46          47          48
    1   0.0002702  -0.0004541   0.0001683   0.0004282   0.0008163  -0.0000324
    2   0.0001704  -0.0005993  -0.0006367  -0.0013294  -0.0008170  -0.0010100
    3   0.0018875   0.0018107  -0.0020219   0.0017603  -0.0018221   0.0013099
           49          50          51
    1   0.0011030   0.0002876  -0.0010445
    2   0.0008084  -0.0006918  -0.0011058
    3   0.0002121  -0.0014788  -0.0041394
 Max gradient component =       5.013E-03
 RMS gradient           =       1.466E-03
 Gradient time:  CPU 30.39 s  wall 30.41 s
 Geometry Optimization Parameters
   NAtoms,    NIC,     NZ,  NCons,   NDum,   NFix, NCnnct, MaxDiis
       51     345       0       0       0       0       0       0

 Cartesian Hessian Update
 Hessian Updated using BFGS Update


** GEOMETRY OPTIMIZATION IN DELOCALIZED INTERNAL COORDINATES **
   Searching for a Minimum

   Optimization Cycle:   2

                       Coordinates (Angstroms)
     ATOM                X               Y               Z
      1  C         4.7354580751   -0.4658945885   -0.1911771881
      2  C         3.5376964263    0.4794509241   -0.2285737585
      3  O         2.3620555644   -0.3070816774   -0.1958442277
      4  C         1.1828128179    0.4740455234   -0.2164681905
      5  C        -0.0070690324   -0.4687200534   -0.0583138511
      6  O        -1.1836203178    0.3159384666   -0.0772282048
      7  C        -2.3560976179   -0.4569102858    0.0914551779
      8  C        -3.5515887822    0.4886999584    0.0127934265
      9  O        -4.7273751052   -0.2814966364    0.1720969550
     10  C        -5.9044217853    0.4996233877    0.0946646966
     11  C        -7.1009908487   -0.4437075901    0.1842640081
     12  O        -8.2773636732    0.3367690304    0.0889556834
     13  C        -9.4589749923   -0.4436174237    0.0965224047
     14  C       -10.6689742199    0.4821042434   -0.0402555237
     15  O         5.9081800947    0.3244132167   -0.1931678846
     16  C         7.0903851132   -0.4519476992   -0.1455938682
     17  C         8.2711563208    0.5017724891    0.0141388018
     18  O         9.4532629176   -0.2734229377    0.0675786433
     19  C        10.6120946758    0.5078459442    0.2956480406
     20  C        11.8334317619   -0.4063696277    0.3132523275
     21  O       -11.8821569843   -0.2494106736    0.0039840478
     22  H         4.7071117249   -1.1323966295   -1.0705888269
     23  H         4.6808724803   -1.0853175395    0.7205951156
     24  H         3.5792562645    1.0894140698   -1.1474372871
     25  H         3.5823821037    1.1550788056    0.6430668513
     26  H         1.0930337350    1.0236307392   -1.1692687996
     27  H         1.1770244335    1.2048103106    0.6108025044
     28  H         0.0868631062   -1.0162288485    0.8952290278
     29  H        -0.0110051777   -1.2008534474   -0.8844267538
     30  H        -2.3522427678   -0.9671941022    1.0700181625
     31  H        -2.4417098058   -1.2196420268   -0.7016443250
     32  H        -3.5455389501    1.0003772890   -0.9650642090
     33  H        -3.4704178152    1.2505866635    0.8072742956
     34  H        -5.9497226122    1.0507728385   -0.8604258795
     35  H        -5.9466817711    1.2290770339    0.9220206353
     36  H        -7.0693523930   -0.9913964389    1.1419150812
     37  H        -7.0465923945   -1.1759638680   -0.6401183483
     38  H        -9.5504112911   -1.0114439796    1.0377241410
     39  H        -9.4520828975   -1.1605730245   -0.7457609580
     40  H       -10.5768201585    1.0785529061   -0.9638991975
     41  H       -10.6859064035    1.1902580161    0.7983723527
     42  H         7.2100267425   -1.0384283882   -1.0727106414
     43  H         7.0719277043   -1.1490795558    0.7098188971
     44  H         8.1378679358    1.0864744975    0.9409551181
     45  H         8.2985806913    1.2015246515   -0.8394965536
     46  H        10.5260076724    1.0362695331    1.2618655625
     47  H        10.7218806879    1.2631885942   -0.5026355819
     48  H        11.7437373262   -1.1574721434    1.1082728978
     49  H        12.7425581900    0.1823607133    0.4917549269
     50  H        11.9398747928   -0.9290721306   -0.6457299186
     51  H       -12.0178643763   -0.6566041346   -0.8696399487
   Point Group: c1    Number of degrees of freedom:   147


   Energy is  -1078.018190077

 GETINT wrote B to file, NVib is          147
 Hessian Updated using BFGS Update

141 Hessian modes will be used to form the next step
  Hessian Eigenvalues:
     0.005796    0.006055    0.006057    0.006074    0.006075    0.006104
     0.006414    0.014057    0.014084    0.014088    0.014107    0.014129
     0.014135    0.014148    0.014169    0.014187    0.014192    0.014201
     0.014208    0.015401    0.051636    0.054649    0.054684    0.054699
     0.054783    0.054789    0.054987    0.055097    0.055113    0.055169
     0.055234    0.055261    0.055284    0.058770    0.059141    0.059705
     0.062513    0.062770    0.062784    0.062805    0.062826    0.062858
     0.062873    0.062901    0.062912    0.062915    0.062941    0.063286
     0.109851    0.109882    0.109903    0.109930    0.109948    0.109988
     0.110160    0.110252    0.110290    0.110322    0.110340    0.112494
     0.115049    0.136267    0.136312    0.136333    0.136374    0.136417
     0.136481    0.136541    0.136620    0.136648    0.136694    0.136717
     0.136739    0.138760    0.159995    0.160759    0.205734    0.220008
     0.221156    0.221175    0.221182    0.221195    0.221210    0.221229
     0.221242    0.221259    0.221266    0.221272    0.222968    0.249659
     0.261939    0.298515    0.300221    0.300271    0.300353    0.300480
     0.300966    0.302932    0.320690    0.320773    0.320798    0.320877
     0.321066    0.321094    0.321173    0.321225    0.321241    0.321257
     0.321269    0.321340    0.321415    0.321470    0.321480    0.321509
     0.321546    0.321563    0.321589    0.321640    0.321665    0.321684
     0.321705    0.322043    0.324369    0.325080    0.325171    0.325317
     0.331713    0.436990    0.437232    0.437334    0.437551    0.437721
     0.437769    0.437846    0.438315    0.438451    0.438481    0.438553
     0.442600    0.454499    0.487212

 Minimum Search - Taking Simple RFO Step
 Searching for Lamda that Minimizes Along All modes
 Value Taken    Lamda =  -0.00174771
 Step Taken.  Stepsize is  0.175532

                             Maximum     Tolerance    Cnvgd?
         Gradient           0.008331      0.000300      NO
         Displacement       0.069874      0.001200      NO
         Energy change     -0.012389      0.000001      NO


 New Cartesian Coordinates Obtained by Inverse Iteration

 Displacement from previous Coordinates is:  1.491579
 ----------------------------------------------------------------
             Standard Nuclear Orientation (Angstroms)
    I     Atom           X                Y                Z
 ----------------------------------------------------------------
    1      C       4.7120281590    -0.4304223567    -0.1205544103
    2      C       3.5384215319     0.5392218406    -0.1206048559
    3      O       2.3545649146    -0.2346913976    -0.1000007737
    4      C       1.1757307580     0.5461944499    -0.1203636723
    5      C      -0.0016087101    -0.4086402876     0.0183804003
    6      O      -1.1843528823     0.3660925260    -0.0258834935
    7      C      -2.3588842786    -0.4076904213     0.1249687122
    8      C      -3.5462812004     0.5360988754    -0.0020067390
    9      O      -4.7190057661    -0.2397195094     0.1508392605
   10      C      -5.9077871559     0.5152841482     0.0197262970
   11      C      -7.0753838900    -0.4509425190     0.1615936566
   12      O      -8.2649314642     0.2987618470     0.0106344198
   13      C      -9.4340779991    -0.4932008181     0.0836411794
   14      C     -10.6395082325     0.4208426583    -0.1253666928
   15      O       5.8976983084     0.3400255086    -0.0989115088
   16      C       7.0724880590    -0.4488137660    -0.1130930692
   17      C       8.2575412949     0.4907095649     0.0582249457
   18      O       9.4282208079    -0.2998060871     0.0268126795
   19      C      10.6118558951     0.4510517462     0.2356527943
   20      C      11.8010010380    -0.4917436379     0.1470223459
   21      O     -11.8551867831    -0.3067120123    -0.0259330996
   22      H       4.6667138584    -1.0681459757    -1.0172006585
   23      H       4.6503380344    -1.0878293300     0.7605825187
   24      H       3.5830667733     1.1771549522    -1.0168886827
   25      H       3.5979719736     1.1959619553     0.7612956385
   26      H       1.0903589163     1.1114288561    -1.0614931398
   27      H       1.1636464600     1.2721664547     0.7076228328
   28      H       0.0795004518    -0.9601961767     0.9678403811
   29      H       0.0165361899    -1.1466933065    -0.7989588929
   30      H      -2.3809992147    -0.9082016593     1.1053841958
   31      H      -2.4220363953    -1.1877085606    -0.6497995360
   32      H      -3.5220177366     1.0310125222    -0.9852112002
   33      H      -3.4856939447     1.3202628367     0.7687566624
   34      H      -5.9561108822     1.0139886213    -0.9606441790
   35      H      -5.9711355936     1.2949037870     0.7949525420
   36      H      -7.0362802158    -0.9423737340     1.1460160035
   37      H      -7.0019073339    -1.2365911857    -0.6068480322
   38      H      -9.5182911777    -0.9946261851     1.0602649161
   39      H      -9.4183400042    -1.2800299014    -0.6917380824
   40      H     -10.5435264455     0.9432348228    -1.0882293227
   41      H     -10.6646536547     1.1824612791     0.6593210682
   42      H       7.1664456383    -1.0009415872    -1.0611207143
   43      H       7.0657222058    -1.1869431956     0.7038836438
   44      H       8.1641392112     1.0320942504     1.0129803352
   45      H       8.2621053664     1.2396941075    -0.7499805883
   46      H      10.5796366489     0.9421913939     1.2227539209
   47      H      10.6949255455     1.2483838466    -0.5217812818
   48      H      11.7258033532    -1.2792936462     0.9030340173
   49      H      12.7334235220     0.0591485245     0.3094695136
   50      H      11.8435463358    -0.9651753813    -0.8386135258
   51      H     -11.9748731048    -0.7984443424    -0.8508588725
 ----------------------------------------------------------------
 Molecular Point Group                 C1    NOp =  1
 Largest Abelian Subgroup              C1    NOp =  1
 Nuclear Repulsion Energy =  1530.0992806248 hartrees
 There are       85 alpha and       85 beta electrons
 Applying Cartesian multipole field
    Component          Value
    ---------          -----
     (2,0,0)        1.00000E-12
     (0,2,0)        2.00000E-10
     (0,0,2)       -3.00000E-10
 Nucleus-field energy     =     0.0000000479 hartrees
 Requested basis set is 6-31G(d)
 There are 144 shells and 375 basis functions
 A cutoff of  1.0D-11 yielded   4028 shell pairs
 There are     27440 function pairs
         cpu   0.02 wall   0.02
 Smallest overlap matrix eigenvalue = 3.34E-03
 Guess MOs from SCF MO coefficient file
Reading MOs from coefficient file
GuessMan calls MO2Den with 85 electrons (IDen = 0)
Reading MOs from coefficient file
GuessMan calls MO2Den with 85 electrons (IDen = 1)
 A restricted hybrid HF-DFT SCF calculation will be
 performed using Pulay DIIS extrapolation
 Exchange:     0.2000 Hartree-Fock + 0.0800 Slater + 0.7200 Becke88
 Correlation:  0.8100 LYP + 0.1900 VWN1RPA
 Using SG-1 standard quadrature grid
 SCF converges when DIIS error is below 1.0E-08
Geometry optimization detected.  Setting ReadMinima to 0
Setting SaveMinima to 0
 ---------------------------------------
  Cycle       Energy         DIIS Error
 ---------------------------------------
    1   -1078.0264973952      1.05E-03
    2   -1078.0188949931      9.73E-05
    3   -1078.0190196225      8.82E-05
    4   -1078.0191291397      2.38E-05
    5   -1078.0191355749      8.92E-06
    6   -1078.0191366304      2.42E-06
    7   -1078.0191367180      5.35E-07
    8   -1078.0191367208      1.79E-07
    9   -1078.0191367223      4.09E-08
   10   -1078.0191367237      1.60E-08
   11   -1078.0191367231      3.65E-09 Convergence criterion met
 ---------------------------------------
 SCF time:  CPU 76.86 s  wall 77.12 s
 SCF   energy in the final basis set = -1078.0191367231
 Total energy in the final basis set = -1078.0191367231
 Analysis of SCF Wavefunction
 
 --------------------------------------------------------------
 
                    Orbital Energies (a.u.)
 --------------------------------------------------------------
 
 Alpha MOs
 -- Occupied --
-19.153 -19.153 -19.153 -19.152 -19.151 -19.148 -19.146 -10.233
-10.233 -10.232 -10.232 -10.232 -10.232 -10.232 -10.231 -10.231
-10.231 -10.231 -10.230 -10.228 -10.176  -1.046  -1.043  -1.039
 -1.035  -1.031  -1.027  -1.019  -0.792  -0.782  -0.768  -0.749
 -0.727  -0.702  -0.680  -0.625  -0.616  -0.611  -0.608  -0.607
 -0.603  -0.602  -0.521  -0.518  -0.511  -0.509  -0.503  -0.496
 -0.493  -0.483  -0.474  -0.471  -0.469  -0.459  -0.455  -0.450
 -0.445  -0.439  -0.435  -0.420  -0.416  -0.406  -0.394  -0.388
 -0.384  -0.377  -0.367  -0.363  -0.352  -0.346  -0.345  -0.333
 -0.327  -0.324  -0.321  -0.320  -0.319  -0.316  -0.271  -0.266
 -0.263  -0.260  -0.257  -0.254  -0.252
 -- Virtual --
  0.063   0.071   0.082   0.092   0.093   0.096   0.096   0.120
  0.129   0.133   0.134   0.135   0.139   0.140   0.144   0.146
  0.150   0.154   0.158   0.162   0.168   0.169   0.174   0.177
  0.181   0.187   0.193   0.197   0.198   0.200   0.203   0.209
  0.209   0.210   0.211   0.212   0.213   0.222   0.226   0.234
  0.238   0.240   0.248   0.251   0.260   0.261   0.269   0.300
  0.335   0.365   0.468   0.482   0.499   0.519   0.533   0.541
  0.545   0.552   0.556   0.556   0.562   0.569   0.573   0.574
  0.578   0.579   0.579   0.582   0.582   0.583   0.585   0.587
  0.588   0.607   0.634   0.651   0.658   0.663   0.665   0.673
  0.677   0.688   0.722   0.736   0.741   0.744   0.749   0.752
  0.759   0.766   0.782   0.795   0.802   0.809   0.812   0.815
  0.824   0.825   0.830   0.832   0.839   0.846   0.855   0.868
  0.872   0.873   0.884   0.891   0.894   0.896   0.899   0.905
  0.916   0.923   0.924   0.928   0.934   0.936   0.939   0.942
  0.949   0.952   0.961   0.963   0.966   0.971   0.978   0.993
  1.005   1.016   1.088   1.097   1.109   1.133   1.162   1.163
  1.168   1.185   1.191   1.192   1.197   1.199   1.202   1.232
  1.256   1.320   1.324   1.350   1.353   1.376   1.385   1.395
  1.397   1.400   1.405   1.409   1.413   1.420   1.425   1.429
  1.440   1.450   1.457   1.501   1.534   1.539   1.542   1.543
  1.547   1.549   1.560   1.598   1.651   1.711   1.716   1.751
  1.791   1.815   1.819   1.825   1.834   1.840   1.843   1.846
  1.850   1.857   1.860   1.876   1.894   1.904   1.915   1.923
  1.928   1.943   1.952   1.970   1.993   2.013   2.015   2.020
  2.023   2.027   2.030   2.034   2.038   2.044   2.047   2.049
  2.068   2.070   2.093   2.099   2.121   2.147   2.155   2.158
  2.159   2.160   2.161   2.166   2.179   2.181   2.194   2.217
  2.222   2.243   2.248   2.255   2.277   2.288   2.304   2.324
  2.328   2.353   2.372   2.379   2.390   2.395   2.445   2.477
  2.502   2.514   2.528   2.534   2.542   2.544   2.545   2.559
  2.567   2.593   2.665   2.671   2.679   2.687   2.690   2.694
  2.744   2.755   2.774   2.797   2.818   2.850   2.890   3.013
  3.026   3.051   3.056   3.083   3.084   3.716   3.820   3.879
  3.962   4.051   4.128   4.176   4.193   4.209   4.221   4.222
  4.225   4.228   4.230   4.390   4.401   4.421   4.448   4.476
  4.501   4.518
 --------------------------------------------------------------
 
          Ground-State Mulliken Net Atomic Charges

     Atom                 Charge (a.u.)
  ----------------------------------------
      1 C                    -0.020803
      2 C                    -0.021779
      3 O                    -0.491631
      4 C                    -0.021392
      5 C                    -0.021395
      6 O                    -0.491866
      7 C                    -0.021158
      8 C                    -0.021516
      9 O                    -0.491879
     10 C                    -0.021476
     11 C                    -0.021953
     12 O                    -0.486746
     13 C                    -0.017605
     14 C                    -0.058072
     15 O                    -0.492068
     16 C                    -0.021708
     17 C                    -0.021848
     18 O                    -0.479258
     19 C                    -0.001489
     20 C                    -0.453588
     21 O                    -0.611894
     22 H                     0.132560
     23 H                     0.133695
     24 H                     0.132948
     25 H                     0.133864
     26 H                     0.134068
     27 H                     0.132934
     28 H                     0.133148
     29 H                     0.133979
     30 H                     0.134195
     31 H                     0.132738
     32 H                     0.133238
     33 H                     0.134083
     34 H                     0.132829
     35 H                     0.134499
     36 H                     0.134576
     37 H                     0.131356
     38 H                     0.135403
     39 H                     0.108180
     40 H                     0.134300
     41 H                     0.160708
     42 H                     0.134161
     43 H                     0.132543
     44 H                     0.129097
     45 H                     0.130550
     46 H                     0.120179
     47 H                     0.119791
     48 H                     0.158371
     49 H                     0.143098
     50 H                     0.158245
     51 H                     0.391786
  ----------------------------------------
  Sum of atomic charges =     0.000000

 -----------------------------------------------------------------
                    Cartesian Multipole Moments
 -----------------------------------------------------------------
    Charge (ESU x 10^10)
                 0.0000
    Dipole Moment (Debye)
         X       1.1079      Y      -0.1413      Z      -1.0891
       Tot       1.5600
    Quadrupole Moments (Debye-Ang)
        XX    -130.1574     XY      13.0579     YY    -128.9369
        XZ      17.4522     YZ       1.6107     ZZ    -126.1831
    Octopole Moments (Debye-Ang^2)
       XXX     391.2786    XXY     -18.3403    XYY     -24.8355
       YYY      -5.0366    XXZ    -173.9473    XYZ     -17.2839
       YYZ      -1.8629    XZZ     -29.4071    YZZ      -2.6320
       ZZZ      -4.4600
    Hexadecapole Moments (Debye-Ang^3)
      XXXX  -41855.6449   XXXY    1622.7660   XXYY   -6739.5102
      XYYY     -21.1758   YYYY    -410.2105   XXXZ    2507.5105
      XXYZ     215.8226   XYYZ      -2.6798   YYYZ       6.2519
      XXZZ   -6535.7964   XYZZ      -0.6260   YYZZ     -99.6807
      XZZZ     -32.7704   YZZZ       4.7554   ZZZZ    -228.7438
 -----------------------------------------------------------------
 Calculating analytic gradient of the SCF energy
         cpu   0.09 wall   0.09
 Gradient of Coulomb and Exchange Energy
            1           2           3           4           5           6
    1  -1.5024048   0.1647046  -0.4692517  -0.9429010   0.7690295   0.2788123
    2   3.3976327  -3.4331466   8.6205899  -3.3630470   3.2519211  -8.6856529
    3   0.2702974   0.2578612   0.0775023   0.3984598  -0.4121909   1.0315686
            7           8           9          10          11          12
    1  -0.4190861   1.3538509   1.0167065   0.4868786   2.1190455   3.1295850
    2   3.2583988  -3.3821420   8.4417149  -3.4929706   3.4609139  -8.6162466
    3  -0.6054253   0.4228776  -1.8665012   0.3990393  -0.7348003   1.1048323
           13          14          15          16          17          18
    1   3.2333025   4.2719362  -1.6324122  -0.8552291  -2.6891229  -4.2427858
    2   3.1315580  -2.2348134  -8.7061088   3.4334002  -3.6166509   8.3922588
    3  -0.1924408   0.8160654   0.1925604   0.5040109  -0.4616653   1.2151048
           19          20          21          22          23          24
    1  -5.9951317  -7.5636966  13.7952269   0.1762285   0.2515123  -0.3818451
    2  -3.1560198   1.6725634   1.5915060   3.5276016   3.6327143  -3.5599376
    3  -0.8649093  -0.1496738  -4.1231494   4.5954495  -4.5154881   4.6342434
           25          26          27          28          29          30
    1  -0.4333098   0.4365063   0.1341040  -0.4876503  -0.1371410   0.2025153
    2  -3.6576062  -3.1940221  -4.0731580   3.1491657   4.1075854   2.8482611
    3  -4.5587980   4.9642570  -4.2548063  -4.9682564   4.2578385  -5.1643388
           31          32          33          34          35          36
    1   0.4370479  -0.1200487  -0.2709818   0.4632802   0.5196226  -0.0430337
    2   4.3141316  -2.8300975  -4.3182390  -2.7991125  -4.1996595   2.6986939
    3   3.9589752   5.1124764  -3.9579840   4.9842275  -3.9101237  -4.9719041
           37          38          39          40          41          42
    1  -0.2198496   0.8592913   0.2870175   0.1692527   0.6674378  -0.6869855
    2   4.1701081   2.5627182   3.8011803  -2.5946522  -4.0245064   2.9743997
    3   3.7472555  -4.6227582   3.4261271   4.3628307  -3.8097076   4.7857615
           43          44          45          46          47          48
    1  -0.2727495   0.2244574  -0.2726395  -0.5941588  -1.0889354  -0.5038720
    2   3.9614022  -2.8861118  -3.8592049  -2.3518018  -3.6570843   3.4583471
    3  -4.0045957  -4.6160043   3.8811165  -4.2773832   3.0983921  -3.2459921
           49          50          51
    1  -4.0753703  -0.9982087   1.4514492
    2  -1.8850990   2.1146003   2.6037242
    3  -0.6090763   4.1599346   4.2389076
 Gradient of SCF Energy
            1           2           3           4           5           6
    1   0.0000224  -0.0001868   0.0000360   0.0002565  -0.0000954   0.0000114
    2  -0.0014399   0.0013837  -0.0006883   0.0014475  -0.0014325   0.0007724
    3   0.0004005   0.0001335  -0.0003831   0.0002520   0.0003800  -0.0002446
            7           8           9          10          11          12
    1   0.0000916  -0.0003970  -0.0000560   0.0001818  -0.0005785   0.0001606
    2  -0.0015483   0.0014567  -0.0007553   0.0016579  -0.0018579   0.0010391
    3   0.0002496  -0.0004607   0.0004628  -0.0004440   0.0000240   0.0002378
           13          14          15          16          17          18
    1   0.0003292  -0.0007921   0.0001002  -0.0000247   0.0001458   0.0001575
    2  -0.0017357   0.0006839   0.0008312  -0.0016544   0.0017266  -0.0006290
    3   0.0002045  -0.0000659  -0.0006119   0.0003646   0.0004585  -0.0002918
           19          20          21          22          23          24
    1  -0.0010731   0.0000783   0.0016549  -0.0000754   0.0000717   0.0001684
    2   0.0011982  -0.0008273  -0.0010862   0.0002488   0.0002677  -0.0002838
    3   0.0000763   0.0000429  -0.0004686   0.0002614  -0.0003354   0.0003268
           25          26          27          28          29          30
    1  -0.0000852   0.0001162  -0.0001978   0.0001754  -0.0001917   0.0000914
    2  -0.0002212  -0.0003248  -0.0002507   0.0001298   0.0003855   0.0002045
    3  -0.0002489   0.0002517  -0.0003282  -0.0004000   0.0001757  -0.0003472
           31          32          33          34          35          36
    1  -0.0001361   0.0001521   0.0000443  -0.0000344  -0.0001367   0.0000865
    2   0.0003661  -0.0002068  -0.0003709  -0.0001319  -0.0003860   0.0002415
    3   0.0002321   0.0003457  -0.0002060   0.0004099  -0.0001281  -0.0003334
           37          38          39          40          41          42
    1   0.0000722  -0.0001274   0.0001412   0.0000767  -0.0002023  -0.0001178
    2   0.0002859   0.0002308   0.0003409  -0.0001858   0.0001526   0.0003773
    3   0.0002643  -0.0003294   0.0001347   0.0001523  -0.0004224   0.0002077
           43          44          45          46          47          48
    1   0.0001455  -0.0000909   0.0001440   0.0001416   0.0003207   0.0000345
    2   0.0002455  -0.0001623  -0.0004702  -0.0002899  -0.0004263   0.0003062
    3  -0.0003817  -0.0004102   0.0001530  -0.0001742   0.0002215  -0.0002783
           49          50          51
    1  -0.0004878   0.0000618  -0.0001834
    2   0.0000993   0.0001183   0.0011674
    3  -0.0000429   0.0002943   0.0006187
 Max gradient component =       1.858E-03
 RMS gradient           =       5.726E-04
 Gradient time:  CPU 29.53 s  wall 29.54 s
 Geometry Optimization Parameters
   NAtoms,    NIC,     NZ,  NCons,   NDum,   NFix, NCnnct, MaxDiis
       51     345       0       0       0       0       0       0

 Cartesian Hessian Update
 Hessian Updated using BFGS Update


** GEOMETRY OPTIMIZATION IN DELOCALIZED INTERNAL COORDINATES **
   Searching for a Minimum

   Optimization Cycle:   3

                       Coordinates (Angstroms)
     ATOM                X               Y               Z
      1  C         4.7120281590   -0.4304223567   -0.1205544103
      2  C         3.5384215319    0.5392218406   -0.1206048559
      3  O         2.3545649146   -0.2346913976   -0.1000007737
      4  C         1.1757307580    0.5461944499   -0.1203636723
      5  C        -0.0016087101   -0.4086402876    0.0183804003
      6  O        -1.1843528823    0.3660925260   -0.0258834935
      7  C        -2.3588842786   -0.4076904213    0.1249687122
      8  C        -3.5462812004    0.5360988754   -0.0020067390
      9  O        -4.7190057661   -0.2397195094    0.1508392605
     10  C        -5.9077871559    0.5152841482    0.0197262970
     11  C        -7.0753838900   -0.4509425190    0.1615936566
     12  O        -8.2649314642    0.2987618470    0.0106344198
     13  C        -9.4340779991   -0.4932008181    0.0836411794
     14  C       -10.6395082325    0.4208426583   -0.1253666928
     15  O         5.8976983084    0.3400255086   -0.0989115088
     16  C         7.0724880590   -0.4488137660   -0.1130930692
     17  C         8.2575412949    0.4907095649    0.0582249457
     18  O         9.4282208079   -0.2998060871    0.0268126795
     19  C        10.6118558951    0.4510517462    0.2356527943
     20  C        11.8010010380   -0.4917436379    0.1470223459
     21  O       -11.8551867831   -0.3067120123   -0.0259330996
     22  H         4.6667138584   -1.0681459757   -1.0172006585
     23  H         4.6503380344   -1.0878293300    0.7605825187
     24  H         3.5830667733    1.1771549522   -1.0168886827
     25  H         3.5979719736    1.1959619553    0.7612956385
     26  H         1.0903589163    1.1114288561   -1.0614931398
     27  H         1.1636464600    1.2721664547    0.7076228328
     28  H         0.0795004518   -0.9601961767    0.9678403811
     29  H         0.0165361899   -1.1466933065   -0.7989588929
     30  H        -2.3809992147   -0.9082016593    1.1053841958
     31  H        -2.4220363953   -1.1877085606   -0.6497995360
     32  H        -3.5220177366    1.0310125222   -0.9852112002
     33  H        -3.4856939447    1.3202628367    0.7687566624
     34  H        -5.9561108822    1.0139886213   -0.9606441790
     35  H        -5.9711355936    1.2949037870    0.7949525420
     36  H        -7.0362802158   -0.9423737340    1.1460160035
     37  H        -7.0019073339   -1.2365911857   -0.6068480322
     38  H        -9.5182911777   -0.9946261851    1.0602649161
     39  H        -9.4183400042   -1.2800299014   -0.6917380824
     40  H       -10.5435264455    0.9432348228   -1.0882293227
     41  H       -10.6646536547    1.1824612791    0.6593210682
     42  H         7.1664456383   -1.0009415872   -1.0611207143
     43  H         7.0657222058   -1.1869431956    0.7038836438
     44  H         8.1641392112    1.0320942504    1.0129803352
     45  H         8.2621053664    1.2396941075   -0.7499805883
     46  H        10.5796366489    0.9421913939    1.2227539209
     47  H        10.6949255455    1.2483838466   -0.5217812818
     48  H        11.7258033532   -1.2792936462    0.9030340173
     49  H        12.7334235220    0.0591485245    0.3094695136
     50  H        11.8435463358   -0.9651753813   -0.8386135258
     51  H       -11.9748731048   -0.7984443424   -0.8508588725
   Point Group: c1    Number of degrees of freedom:   147


   Energy is  -1078.019136723

 GETINT wrote B to file, NVib is          147
 Hessian Updated using BFGS Update

143 Hessian modes will be used to form the next step
  Hessian Eigenvalues:
     0.005594    0.005808    0.006057    0.006071    0.006076    0.006106
     0.006414    0.011796    0.014078    0.014097    0.014105    0.014128
     0.014136    0.014159    0.014159    0.014189    0.014194    0.014203
     0.014245    0.015213    0.051628    0.054397    0.054656    0.054699
     0.054734    0.054785    0.055004    0.055025    0.055100    0.055155
     0.055216    0.055263    0.055293    0.058616    0.059139    0.059876
     0.061204    0.062748    0.062784    0.062800    0.062820    0.062855
     0.062887    0.062897    0.062905    0.062912    0.062916    0.063306
     0.108357    0.109884    0.109906    0.109942    0.109981    0.110055
     0.110163    0.110260    0.110287    0.110312    0.110355    0.110463
     0.114995    0.135862    0.136315    0.136333    0.136378    0.136423
     0.136521    0.136551    0.136579    0.136652    0.136692    0.136717
     0.136747    0.139019    0.159826    0.160001    0.160760    0.216122
     0.221082    0.221156    0.221175    0.221182    0.221208    0.221226
     0.221230    0.221259    0.221264    0.221272    0.222566    0.244597
     0.249566    0.250923    0.262961    0.298514    0.300217    0.300280
     0.300350    0.300499    0.302011    0.316088    0.320696    0.320772
     0.320798    0.320877    0.321068    0.321115    0.321209    0.321239
     0.321252    0.321269    0.321339    0.321384    0.321435    0.321468
     0.321482    0.321512    0.321546    0.321565    0.321622    0.321652
     0.321679    0.321703    0.321996    0.322080    0.324581    0.325090
     0.325256    0.325382    0.348078    0.436983    0.437115    0.437237
     0.437335    0.437648    0.437744    0.437843    0.438387    0.438467
     0.438502    0.438568    0.445050    0.454728    0.496373

 Minimum Search - Taking Simple RFO Step
 Searching for Lamda that Minimizes Along All modes
 Value Taken    Lamda =  -0.00046597
 Step Taken.  Stepsize is  0.208967

                             Maximum     Tolerance    Cnvgd?
[...]
    1  -0.0000111   0.0000125  -0.0000042  -0.0000169   0.0000094   0.0000005
    2  -0.0000005   0.0000022  -0.0000047   0.0000073  -0.0000098  -0.0000023
    3   0.0000014  -0.0000051   0.0000002  -0.0000083  -0.0000073   0.0000001
           13          14          15          16          17          18
    1  -0.0000088   0.0000056   0.0000006   0.0000151  -0.0000107  -0.0000009
    2   0.0000027   0.0000091   0.0000025  -0.0000114   0.0000056   0.0000030
    3  -0.0000098  -0.0000045   0.0000037  -0.0000007   0.0000067  -0.0000039
           19          20          21          22          23          24
    1   0.0000107  -0.0000024   0.0000009   0.0000097  -0.0000049  -0.0000072
    2  -0.0000088  -0.0000063  -0.0000046   0.0000005   0.0000014   0.0000000
    3   0.0000076   0.0000064  -0.0000040   0.0000011  -0.0000069   0.0000009
           25          26          27          28          29          30
    1   0.0000046   0.0000000   0.0000029  -0.0000037  -0.0000009   0.0000023
    2   0.0000040   0.0000050  -0.0000003  -0.0000017   0.0000004  -0.0000019
    3  -0.0000046   0.0000034  -0.0000024  -0.0000041   0.0000028  -0.0000063
           31          32          33          34          35          36
    1   0.0000029  -0.0000013  -0.0000018  -0.0000017   0.0000052  -0.0000065
    2   0.0000002   0.0000022   0.0000006   0.0000034  -0.0000009  -0.0000015
    3   0.0000012   0.0000046  -0.0000019   0.0000047   0.0000001  -0.0000010
           37          38          39          40          41          42
    1   0.0000032   0.0000051  -0.0000007   0.0000055  -0.0000071   0.0000001
    2   0.0000020  -0.0000056  -0.0000006  -0.0000002  -0.0000045   0.0000001
    3   0.0000056  -0.0000037   0.0000031   0.0000013  -0.0000004   0.0000018
           43          44          45          46          47          48
    1  -0.0000055   0.0000047  -0.0000007  -0.0000046   0.0000017   0.0000022
    2   0.0000034  -0.0000006   0.0000020   0.0000062   0.0000052   0.0000012
    3  -0.0000055  -0.0000008   0.0000057  -0.0000025   0.0000036  -0.0000023
           49          50          51
    1  -0.0000035   0.0000001  -0.0000018
    2   0.0000016   0.0000030   0.0000025
    3   0.0000007   0.0000022   0.0000004
 Max gradient component =       1.689E-05
 RMS gradient           =       5.339E-06
 Gradient time:  CPU 30.00 s  wall 30.00 s
 Geometry Optimization Parameters
   NAtoms,    NIC,     NZ,  NCons,   NDum,   NFix, NCnnct, MaxDiis
       51     345       0       0       0       0       0       0

 Cartesian Hessian Update
 Hessian Updated using BFGS Update


** GEOMETRY OPTIMIZATION IN DELOCALIZED INTERNAL COORDINATES **
   Searching for a Minimum

   Optimization Cycle:  10

                       Coordinates (Angstroms)
     ATOM                X               Y               Z
      1  C         4.7163482754   -0.4395525590   -0.0374688516
      2  C         3.5401305214    0.5239220540    0.0291142961
      3  O         2.3559606482   -0.2499488040    0.0286727707
      4  C         1.1775396558    0.5307487614   -0.0147499334
      5  C        -0.0042907660   -0.4199504083    0.1072816478
      6  O        -1.1859842299    0.3476943653   -0.0153456376
      7  C        -2.3648595603   -0.4226546114    0.1143505919
      8  C        -3.5488267153    0.5096975911   -0.0958017564
      9  O        -4.7271346441   -0.2580482559    0.0557977168
     10  C        -5.9105860685    0.4960382475   -0.1205495744
     11  C        -7.0878522481   -0.4436469080    0.0946170377
     12  O        -8.2734410246    0.3043363261   -0.0946566967
     13  C        -9.4505612065   -0.4590349985    0.0794114039
     14  C       -10.6517312728    0.4562593152   -0.1451703343
     15  O         5.9009454729    0.3266621702    0.0569285716
     16  C         7.0779235396   -0.4512238604   -0.0511585401
     17  C         8.2654739514    0.4798871646    0.1438844494
     18  O         9.4404693250   -0.2907965397   -0.0022988903
     19  C        10.6285305971    0.4656157606    0.1634348394
     20  C        11.8194173454   -0.4563007409   -0.0399691222
     21  O       -11.8778177314   -0.2413302992    0.0276699770
     22  H         4.6827534214   -1.0051877806   -0.9823554168
     23  H         4.6472720228   -1.1663499899    0.7880460635
     24  H         3.5679507930    1.2079677411   -0.8341972980
     25  H         3.6136802757    1.1361602499    0.9421819670
     26  H         1.1071562606    1.0915743156   -0.9605724087
     27  H         1.1552197729    1.2627648301    0.8086340018
     28  H         0.0327027996   -0.9392396919    1.0782065493
     29  H         0.0529878671   -1.1865908824   -0.6823275524
     30  H        -2.4283506823   -0.8864275890    1.1117877483
     31  H        -2.3920243002   -1.2331452058   -0.6316852765
     32  H        -3.4953069459    0.9603678983   -1.0997394101
     33  H        -3.5133514349    1.3294104844    0.6396719006
     34  H        -5.9587845222    0.9283996985   -1.1328504203
     35  H        -5.9605548817    1.3282434134    0.5997476538
     36  H        -7.0448804871   -0.8688313806    1.1100133123
     37  H        -7.0306676773   -1.2810392139   -0.6195973546
     38  H        -9.4996913955   -0.8922010685    1.0912788062
     39  H        -9.4771857366   -1.2990004280   -0.6392878134
     40  H       -10.5765819364    0.9247718020   -1.1379714944
     41  H       -10.6458293533    1.2576999285    0.5991449468
     42  H         7.1432287065   -0.9359932412   -1.0383814727
     43  H         7.0980755831   -1.2461142632    0.7116273941
     44  H         8.2140052732    0.9443172824    1.1423108559
     45  H         8.2266909142    1.2917811622   -0.6010667580
     46  H        10.6528595373    0.9164595052    1.1703238024
     47  H        10.6512944399    1.2959173545   -0.5631132677
     48  H        11.8010748584   -1.2737046906    0.6882349175
     49  H        12.7568560419    0.0973654390    0.0821459523
     50  H        11.8004983110   -0.8915496480   -1.0443423769
     51  H       -11.9701942042   -0.8634054077   -0.7102916597
   Point Group: c1    Number of degrees of freedom:   147


   Energy is  -1078.019499947

 GETINT wrote B to file, NVib is          147
 Hessian Updated using BFGS Update

147 Hessian modes will be used to form the next step
  Hessian Eigenvalues:
     0.002963    0.003805    0.005764    0.006006    0.006193    0.006407
     0.006793    0.007146    0.011300    0.013148    0.014100    0.014108
     0.014148    0.014162    0.014173    0.014198    0.014241    0.014504
     0.018635    0.026434    0.051790    0.054645    0.054683    0.054862
     0.054908    0.054917    0.055018    0.055147    0.055212    0.055287
     0.055789    0.056385    0.058603    0.059192    0.059882    0.062679
     0.062772    0.062795    0.062812    0.062827    0.062850    0.062897
     0.062908    0.062917    0.063095    0.063193    0.063427    0.084552
     0.109009    0.109845    0.109903    0.109949    0.110078    0.110178
     0.110287    0.110302    0.110342    0.110376    0.110777    0.111217
     0.114825    0.132965    0.133606    0.136267    0.136420    0.136518
     0.136520    0.136604    0.136650    0.136675    0.136849    0.137196
     0.138257    0.146433    0.159394    0.159880    0.160998    0.161468
     0.214932    0.220432    0.221117    0.221176    0.221181    0.221215
     0.221234    0.221259    0.221560    0.222006    0.227037    0.229919
     0.241329    0.249780    0.250035    0.250675    0.253957    0.262529
     0.281413    0.299123    0.300242    0.300320    0.300395    0.300628
     0.306421    0.316766    0.320661    0.320733    0.320791    0.320852
     0.321001    0.321102    0.321134    0.321212    0.321242    0.321264
     0.321301    0.321334    0.321414    0.321456    0.321488    0.321552
     0.321560    0.321600    0.321671    0.321683    0.321714    0.321799
     0.322028    0.322256    0.324449    0.325195    0.325341    0.326197
     0.334198    0.436465    0.437013    0.437310    0.437573    0.437581
     0.437887    0.437937    0.438426    0.438532    0.438603    0.444221
     0.455902    0.476665    0.491526

 Minimum Search - Taking Simple RFO Step
 Searching for Lamda that Minimizes Along All modes
 Value Taken    Lamda =   0.00000000
 Step Taken.  Stepsize is  0.003664

                             Maximum     Tolerance    Cnvgd?
         Gradient           0.000029      0.000300     YES
         Displacement       0.001373      0.001200      NO
         Energy change      0.000000      0.000001     YES

 Final energy is   -1078.01949994715     


 ******************************
 **  OPTIMIZATION CONVERGED  **
 ******************************

Z-matrix Print:
$molecule
0 1
O 
C  1 1.414216
H  2 1.101815 1 111.120902
H  2 1.101909 1 111.046032 3 119.695596 0
C  1 1.414466 2 113.130985 3 -62.181240 0
H  5 1.101692 1 111.116607 2 58.273718 0
H  5 1.102044 1 111.029144 2 -61.401869 0
C  2 1.521586 1 107.588895 3 -120.178101 0
H  8 1.101753 2 109.797591 1 -59.943023 0
H  8 1.101866 2 109.791846 1 58.160119 0
O  8 1.414505 2 107.505664 1 179.066681 0
C  11 1.414320 8 113.221293 2 179.822103 0
H  12 1.101767 11 111.048866 8 58.843663 0
H  12 1.101822 11 111.123696 8 -60.884689 0
C  12 1.521598 11 107.487784 8 178.976894 0
H  15 1.101661 12 109.785764 11 -59.532539 0
H  15 1.102088 12 109.721838 11 58.498176 0
O  15 1.414540 12 107.637708 11 179.406426 0
C  18 1.413735 15 113.319930 12 179.950838 0
H  19 1.101781 18 111.253520 15 -59.303603 0
H  19 1.105794 18 110.498600 15 59.764078 0
C  5 1.521658 1 107.627831 2 178.547093 0
H  22 1.101844 5 109.708405 1 55.658337 0
H  22 1.101956 5 109.839012 1 -62.392970 0
O  22 1.414231 5 107.446252 1 176.591599 0
C  25 1.414615 22 113.299545 5 175.358738 0
H  26 1.101788 25 111.107827 22 -64.555480 0
H  26 1.101816 25 111.132247 22 55.247541 0
C  26 1.521908 25 107.494800 22 175.457115 0
H  29 1.101763 26 109.813944 25 -62.914835 0
H  29 1.102035 26 109.651455 25 55.082864 0
O  29 1.413954 26 107.548559 25 175.994851 0
C  32 1.414944 29 113.195881 26 177.421485 0
H  33 1.101760 32 111.078520 29 -62.934015 0
H  33 1.101862 32 111.034787 29 56.720031 0
C  33 1.521606 32 107.637477 29 176.902284 0
H  36 1.102361 33 109.722517 32 -60.489327 0
H  36 1.102555 33 109.666614 32 57.327463 0
O  36 1.412776 33 107.579331 32 178.353086 0
C  39 1.418139 36 113.184966 33 179.754074 0
H  40 1.103484 39 110.061512 36 -59.825717 0
H  40 1.103536 39 109.977855 36 57.854204 0
C  40 1.519709 39 108.498460 36 178.967989 0
H  43 1.094790 40 110.513403 39 -59.938125 0
H  43 1.094882 40 110.533240 39 59.868920 0
H  43 1.095559 40 110.427994 39 179.954204 0
C  19 1.526765 18 108.254863 15 -179.806662 0
H  47 1.093777 19 109.568006 18 61.914842 0
H  47 1.100366 19 109.526383 18 -55.841380 0
O  47 1.421194 19 111.505017 18 179.380844 0
H  50 0.969587 47 107.731272 19 69.568102 0
$end

 Analysis of SCF Wavefunction
 
 --------------------------------------------------------------
 
                    Orbital Energies (a.u.)
 --------------------------------------------------------------
 
 Alpha MOs
 -- Occupied --
-19.154 -19.154 -19.153 -19.152 -19.151 -19.148 -19.146 -10.234
-10.233 -10.233 -10.233 -10.233 -10.233 -10.232 -10.232 -10.231
-10.231 -10.231 -10.230 -10.229 -10.177  -1.046  -1.043  -1.039
 -1.035  -1.031  -1.027  -1.018  -0.792  -0.782  -0.768  -0.749
 -0.727  -0.703  -0.680  -0.625  -0.617  -0.611  -0.608  -0.607
 -0.604  -0.602  -0.521  -0.517  -0.511  -0.509  -0.503  -0.496
 -0.493  -0.484  -0.474  -0.471  -0.470  -0.459  -0.455  -0.451
 -0.445  -0.439  -0.435  -0.421  -0.416  -0.406  -0.394  -0.389
 -0.384  -0.377  -0.368  -0.363  -0.352  -0.348  -0.345  -0.334
 -0.327  -0.324  -0.321  -0.320  -0.319  -0.315  -0.272  -0.266
 -0.263  -0.260  -0.257  -0.255  -0.252
 -- Virtual --
  0.063   0.070   0.081   0.091   0.093   0.096   0.096   0.119
  0.128   0.133   0.133   0.135   0.138   0.139   0.143   0.146
  0.150   0.153   0.158   0.161   0.167   0.169   0.174   0.176
  0.181   0.186   0.193   0.197   0.198   0.200   0.202   0.208
  0.209   0.209   0.211   0.212   0.213   0.222   0.225   0.234
  0.238   0.240   0.248   0.251   0.260   0.262   0.268   0.300
  0.334   0.364   0.468   0.482   0.499   0.519   0.533   0.541
  0.544   0.551   0.555   0.556   0.562   0.568   0.572   0.576
  0.578   0.579   0.579   0.580   0.582   0.583   0.585   0.586
  0.588   0.607   0.633   0.651   0.657   0.663   0.665   0.673
  0.677   0.687   0.722   0.735   0.741   0.743   0.749   0.752
  0.760   0.765   0.782   0.794   0.801   0.807   0.811   0.815
  0.822   0.825   0.829   0.831   0.839   0.847   0.855   0.869
  0.872   0.873   0.882   0.891   0.893   0.895   0.898   0.905
  0.915   0.922   0.923   0.927   0.933   0.936   0.938   0.940
  0.948   0.951   0.960   0.961   0.966   0.970   0.977   0.993
  1.006   1.018   1.083   1.097   1.110   1.133   1.161   1.163
  1.165   1.185   1.188   1.195   1.196   1.199   1.201   1.231
  1.252   1.320   1.324   1.349   1.354   1.374   1.383   1.395
  1.397   1.399   1.404   1.411   1.413   1.422   1.425   1.431
  1.441   1.449   1.456   1.497   1.528   1.538   1.541   1.542
  1.546   1.548   1.559   1.600   1.648   1.707   1.714   1.757
  1.797   1.815   1.819   1.825   1.833   1.840   1.844   1.845
  1.847   1.854   1.861   1.875   1.896   1.903   1.914   1.923
  1.929   1.942   1.953   1.971   1.993   2.014   2.016   2.019
  2.024   2.028   2.030   2.034   2.039   2.043   2.045   2.048
  2.067   2.068   2.091   2.097   2.120   2.147   2.154   2.157
  2.158   2.158   2.160   2.164   2.177   2.179   2.192   2.215
  2.221   2.238   2.248   2.253   2.275   2.288   2.303   2.322
  2.329   2.354   2.371   2.379   2.389   2.392   2.444   2.479
  2.500   2.512   2.526   2.533   2.541   2.543   2.545   2.561
  2.568   2.592   2.665   2.672   2.679   2.688   2.690   2.696
  2.743   2.755   2.774   2.797   2.818   2.851   2.891   3.012
  3.025   3.051   3.055   3.082   3.084   3.716   3.820   3.878
  3.961   4.050   4.127   4.176   4.192   4.208   4.221   4.221
  4.224   4.227   4.230   4.389   4.401   4.421   4.447   4.475
  4.500   4.518
 --------------------------------------------------------------
 
          Ground-State Mulliken Net Atomic Charges

     Atom                 Charge (a.u.)
  ----------------------------------------
      1 C                    -0.020457
      2 C                    -0.021743
      3 O                    -0.491514
      4 C                    -0.021407
      5 C                    -0.021239
      6 O                    -0.491616
      7 C                    -0.020990
      8 C                    -0.021401
      9 O                    -0.491869
     10 C                    -0.021236
     11 C                    -0.022012
     12 O                    -0.486242
     13 C                    -0.021231
     14 C                    -0.053197
     15 O                    -0.491873
     16 C                    -0.021458
     17 C                    -0.021390
     18 O                    -0.479701
     19 C                    -0.001325
     20 C                    -0.453590
     21 O                    -0.612038
     22 H                     0.131788
     23 H                     0.134108
     24 H                     0.132086
     25 H                     0.134793
     26 H                     0.134580
     27 H                     0.132378
     28 H                     0.132664
     29 H                     0.134300
     30 H                     0.133976
     31 H                     0.132702
     32 H                     0.133173
     33 H                     0.134122
     34 H                     0.133247
     35 H                     0.134178
     36 H                     0.134305
     37 H                     0.131693
     38 H                     0.135165
     39 H                     0.107066
     40 H                     0.134558
     41 H                     0.161097
     42 H                     0.133714
     43 H                     0.132377
     44 H                     0.129136
     45 H                     0.129899
     46 H                     0.120168
     47 H                     0.119880
     48 H                     0.158436
     49 H                     0.143440
     50 H                     0.158333
     51 H                     0.390169
  ----------------------------------------
  Sum of atomic charges =     0.000000

 -----------------------------------------------------------------
                    Cartesian Multipole Moments
 -----------------------------------------------------------------
    Charge (ESU x 10^10)
                 0.0000
    Dipole Moment (Debye)
         X       1.2086      Y      -0.3259      Z      -0.9774
       Tot       1.5882
    Quadrupole Moments (Debye-Ang)
        XX    -131.7663     XY      15.5453     YY    -128.5635
        XZ      14.9802     YZ       1.5043     ZZ    -126.7583
    Octopole Moments (Debye-Ang^2)
       XXX     426.6508    XXY     -48.8944    XYY     -28.9219
       YYY      -5.5982    XXZ    -157.0231    XYZ     -18.2731
       YYZ      -2.2410    XZZ     -23.6913    YZZ      -2.4244
       ZZZ      -5.2153
    Hexadecapole Moments (Debye-Ang^3)
      XXXX  -42377.8342   XXXY    2019.0951   XXYY   -6700.8725
      XYYY      -5.6623   YYYY    -403.9822   XXXZ    2204.5505
      XXYZ     204.5919   XYYZ     -15.5180   YYYZ       5.2620
      XXZZ   -6630.7273   XYZZ      -0.0581   YYZZ     -99.1634
      XZZZ     -75.5215   YZZZ       3.5907   ZZZZ    -225.5878
 -----------------------------------------------------------------
Archival summary:
1\1\Brandons-MacBook-Pro.local\OPT\ProcedureUnspecified\6-31G*\7149147\WedJul811:33:342015WedJul811:33:342015\0\\#,OPT,ProcedureUnspecified,6-31G*,\\0,1\O\C,1,1.41422\H,2,1.10182,1,111.121\H,2,1.10191,1,111.046,3,119.696,0\C,1,1.41447,2,113.131,3,-62.1812,0\H,5,1.10169,1,111.117,2,58.2737,0\H,5,1.10204,1,111.029,2,-61.4019,0\C,2,1.52159,1,107.589,3,-120.178,0\H,8,1.10175,2,109.798,1,-59.943,0\H,8,1.10187,2,109.792,1,58.1601,0\O,8,1.41451,2,107.506,1,179.067,0\C,11,1.41432,8,113.221,2,179.822,0\H,12,1.10177,11,111.049,8,58.8437,0\H,12,1.10182,11,111.124,8,-60.8847,0\C,12,1.5216,11,107.488,8,178.977,0\H,15,1.10166,12,109.786,11,-59.5325,0\H,15,1.10209,12,109.722,11,58.4982,0\O,15,1.41454,12,107.638,11,179.406,0\C,18,1.41374,15,113.32,12,179.951,0\H,19,1.10178,18,111.254,15,-59.3036,0\H,19,1.10579,18,110.499,15,59.7641,0\C,5,1.52166,1,107.628,2,178.547,0\H,22,1.10184,5,109.708,1,55.6583,0\H,22,1.10196,5,109.839,1,-62.393,0\O,22,1.41423,5,107.446,1,176.592,0\C,25,1.41461,22,113.3,5,175.359,0\H,26,1.10179,25,111.108,22,-64.5555,0\H,26,1.10182,25,111.132,22,55.2475,0\C,26,1.52191,25,107.495,22,175.457,0\H,29,1.10176,26,109.814,25,-62.9148,0\H,29,1.10203,26,109.651,25,55.0829,0\O,29,1.41395,26,107.549,25,175.995,0\C,32,1.41494,29,113.196,26,177.421,0\H,33,1.10176,32,111.079,29,-62.934,0\H,33,1.10186,32,111.035,29,56.72,0\C,33,1.52161,32,107.637,29,176.902,0\H,36,1.10236,33,109.723,32,-60.4893,0\H,36,1.10256,33,109.667,32,57.3275,0\O,36,1.41278,33,107.579,32,178.353,0\C,39,1.41814,36,113.185,33,179.754,0\H,40,1.10348,39,110.062,36,-59.8257,0\H,40,1.10354,39,109.978,36,57.8542,0\C,40,1.51971,39,108.498,36,178.968,0\H,43,1.09479,40,110.513,39,-59.9381,0\H,43,1.09488,40,110.533,39,59.8689,0\H,43,1.09556,40,110.428,39,179.954,0\C,19,1.52676,18,108.255,15,-179.807,0\H,47,1.09378,19,109.568,18,61.9148,0\H,47,1.10037,19,109.526,18,-55.8414,0\O,47,1.42119,19,111.505,18,179.381,0\H,50,0.969587,47,107.731,19,69.5681,0\\\@

 Total job time:  1018.21s(wall), 1015.17s(cpu) 
 Wed Jul  8 11:33:34 2015

        *************************************************************
        *                                                           *
        *  Thank you very much for using Q-Chem.  Have a nice day.  *
        *                                                           *
        *************************************************************


