
Running Job 1 of 1 PEOstrands_geo_1A4.in
qchem PEOstrands_geo_1A4.in_33193.0 /scratch2/scratchdirs/bwood/qchem/qchem33193/ 24
aprun -b -n 24 /global/project/projectdirs/jcesr/qchem/qc41/exe/qcprog.exe PEOstrands_geo_1A4.in_33193.0 /scratch2/scratchdirs/bwood/qchem/qchem33193/

Process 23 of 24 is on nid05918 - thread support 0
Process 1 of 24 is on nid05918 - thread support 0
Process 5 of 24 is on nid05918 - thread support 0
Process 3 of 24 is on nid05918 - thread support 0
Process 0 of 24 is on nid05918 - thread support 0
Process 2 of 24 is on nid05918 - thread support 0
Process 4 of 24 is on nid05918 - thread support 0
Process 6 of 24 is on nid05918 - thread support 0
initial socket setup ...start 0 nproc 24 
initial socket setup ...done 0 nproc 24 
now start server 0 ... 
                  Welcome to Q-Chem
     A Quantum Leap Into The Future Of Chemistry

 Y. Shao, L. Fusti-Molnar, Y. Jung, J. Kussmann, C. Ochsenfeld, S. T. Brown, 
 A. T. B. Gilbert, L. V. Slipchenko, S. V. Levchenko, D. P. O'Neill, 
 R. A. DiStasio Jr., R. C. Lochan, T. Wang, G. J. O. Beran, N. A. Besley, 
 J. M. Herbert, C. Y. Lin, T. Van Voorhis, S. H. Chien, A. Sodt, R. P. Steele, 
 V. A. Rassolov, P. E. Maslen, P. P. Korambath, R. D. Adamson, B. Austin, 
 J. Baker, E. F. C. Byrd, H. Dachsel, R. J. Doerksen, A. Dreuw, B. D. Dunietz, 
 A. D. Dutoi, T. R. Furlani, S. R. Gwaltney, A. Heyden, S. Hirata, C.-P. Hsu, 
 G. Kedziora, R. Z. Khaliullin, P. Klunzinger, A. M. Lee, M. S. Lee, W. Liang, 
 I. Lotan, N. Nair, B. Peters, E. I. Proynov, P. A. Pieniazek, Y. M. Rhee, 
 J. Ritchie, E. Rosta, C. D. Sherrill, A. C. Simmonett, J. E. Subotnik, 
 H. L. Woodcock III, W. Zhang, A. T. Bell, A. K. Chakraborty, D. M. Chipman, 
 F. J. Keil, A. Warshel, W. J. Hehre, H. F. Schaefer III, J. Kong, 
 A. I. Krylov, P. M. W. Gill, M. Head-Gordon

 Additional authors for Version 3.1: 
 Z. Gan, Y. Zhao, N. E. SchultzD. Truhlar, E. Epifanovsky, M. Oana

 Additional authors for Version 3.2: 
 R. Baer, B. R. Brooks, D. Casanova, J.-D. Chai, C.-L. Cheng, C. Cramer, 
 D. Crittenden, A. Ghysels, G. Hawkins, E. G. Hohenstein, C. Kelley, 
 W. Kurlancheek, D. Liotard, E. Livshits, P. Manohar, A. Marenich, 
 D. Neuhauser, R. Olson, M. A. Rohrdanz, K. S. Thanthiriwatte, A. J. W. Thom, 
 V. Vanovschi, C. F. Williams, Q. Wu, Z.-Q. You

 Additional authors for Version 4.0: 
 A. Aspuru-Guzik, Y. Bernard, C. Chang, J. Deng, A. Dreuw, M. Diedenhofen, 
 R. G. Edgar, D. Ghosh, W. A. Goddard III, M. Goldey, L. D. Jacobson, 
 M. Gordon, B. Kaduk, I. Kaliman, K. Khistyaev, R. King, A. Klamt, 
 D. Kosenkov, T. Kus, D. Lambrecht, A. Landau, A. W. Lange, K. Lawler, F. Liu, 
 J. Liu, R. Olivares-Amaya, S. P. Mao, J. Parkhill, N. Russ, M. Schmidt, 
 N. Shenvi, D. Small, Y. C. Su, E. Sundstrom, L. Vogt, O. Vydrov, M. Watson, 
 M. Wormit, X. Xu, S. Yeganeh, I. Y. Zhang, D. Zuev

 Additional authors for Version 4.1: 
 X. Feng, M. W. D. Hanson-Heine, P. Horn, H. Ji, A. Laurent, R. Peverati, 
 N. Mardirossian, N. Sergueev, S. Sharada, P. Zimmerman


 Q-Chem, Version 4.1, Q-Chem, Inc., Pittsburgh, PA (2013).

 Intel X86 Linux Version 4.1.1

 Q-chem begins on Tue Jul 28 18:26:17 2015  

 Host: nid02817

 Scratch files written to /scratch2/scratchdirs/bwood/qchem/qchem33193.0//
 Nov1913 .. -1
 Parallel job on  24  processors

Processing $rem in /global/project/projectdirs/jcesr/qchem/qc41/config/preferences.
 mem_total = 4000
Finally everything over in PARseQInput

--------------------------------------------------------------
User input:
--------------------------------------------------------------
$molecule
0 1
C  -10.5885609    3.4065367    0.7925484
C  -10.3193562    2.0850078    1.5297871
O   -9.0295774    2.1960242    2.1668669
C   -8.6752454    1.0996599    3.0375860
C   -7.1665984    1.2009740    3.2974735
O   -6.8003408    0.3080701    4.3704971
C   -5.3853820    0.3084044    4.6677138
C   -5.1481971   -0.5322833    5.9312320
O  -11.4933393    3.1890516   -0.2906303
C   -5.6511073    4.4992562   -5.4294934
C   -5.3924297    3.1438916   -4.7532069
O   -5.1811477    3.3699884   -3.3430567
C   -4.9310405    2.1721581   -2.5752539
C   -4.7694220    2.5657892   -1.0957987
O   -4.6398252    1.3818880   -0.2688771
C   -3.3828390    0.6731187   -0.3520883
C   -3.4563839   -0.5348323    0.5942925
C   -7.8241187   -0.2430958   -0.6600328
C   -8.5237987    0.5617788   -1.7651363
O   -8.2537199    1.9667299   -1.5631103
C   -8.7552111    2.8161259   -2.6162021
C   -8.3716724    4.2715891   -2.3093735
O   -8.8628324    5.1047420   -3.3549005
C   -3.0159170    3.2411167    2.4221766
O   -2.5987219    2.0256016    3.0461724
C   -4.5470338    3.3298167    2.4775362
O   -4.9846180    4.4568317    1.6908031
C   -6.4227064    4.5768692    1.5937226
C   -6.7503883    5.7817193    0.6994414
H   -9.6486548    3.8022442    0.4040245
H  -11.0122090    4.1340744    1.4898406
H  -10.2913762    1.2510109    0.8230300
H  -11.0943113    1.9093477    2.2812953
H   -8.9047744    0.1449791    2.5568335
H   -9.2340161    1.1883916    3.9731912
H   -6.9164597    2.2238509    3.5894069
H   -6.6195564    0.9283100    2.3902286
H   -5.0466591    1.3339328    4.8408116
H   -4.8394794   -0.1202086    3.8227572
H   -5.6749768   -0.0954356    6.7826181
H   -4.0821714   -0.5672171    6.1661744
H   -5.5057825   -1.5538744    5.7862559
H  -10.9986398    2.7717227   -1.0198526
H   -5.8349414    4.3610208   -6.4970410
H   -4.7874491    5.1572033   -5.3094980
H   -6.5223529    4.9884368   -4.9895290
H   -4.5024747    2.6757236   -5.1835481
H   -6.2563167    2.4873213   -4.8894974
H   -4.0202121    1.6959543   -2.9466037
H   -5.7774261    1.4889300   -2.6849269
H   -5.6645470    3.1041165   -0.7756092
H   -3.8987304    3.2131117   -0.9577134
H   -2.5691300    1.3387119   -0.0505951
H   -3.2159171    0.3280314   -1.3756264
H   -3.6555933   -0.2105688    1.6174001
H   -2.5126033   -1.0839693    0.5820185
H   -4.2555895   -1.2123457    0.2852015
H   -8.0639983   -1.3040494   -0.7549025
H   -8.1444209    0.0975858    0.3246537
H   -6.7416112   -0.1295090   -0.7313800
H   -9.6037821    0.3938844   -1.7250941
H   -8.1397899    0.2532313   -2.7418279
H   -9.8430446    2.7190478   -2.6737139
H   -8.3088032    2.5087469   -3.5659438
H   -7.2852053    4.3659738   -2.2431787
H   -8.8116301    4.5873681   -1.3627600
H   -8.4598353    4.7971686   -4.1847277
H   -2.6847880    3.2501288    1.3804920
H   -2.5758073    4.0960049    2.9425868
H   -3.0142437    1.2832126    2.5693660
H   -4.8796757    3.4572953    3.5115247
H   -4.9796351    2.4192505    2.0581081
H   -6.8445015    4.7250141    2.5919805
H   -6.8373031    3.6642136    1.1543576
H   -6.3467811    6.6997198    1.1323214
H   -7.8317267    5.8936294    0.5970034
H   -6.3191472    5.6481111   -0.2951456
$end

$rem
BASIS  =  3-21++G
JOB_TYPE  =  Optimization
exchange  =  B3LYP
GEOM_OPT_MAX_CYCLES = 100
$end

--------------------------------------------------------------
 ----------------------------------------------------
       Standard Nuclear Orientation (Angstroms)
    I     Atom         X            Y            Z
 ----------------------------------------------------
    1      C       1.012819    -3.991926    -0.739161
    2      C      -0.173659    -3.952119     0.237117
    3      O      -1.072278    -2.915967    -0.210763
    4      C      -2.326052    -2.836447     0.501589
    5      C      -2.951580    -1.477552     0.161088
    6      O      -4.321044    -1.448805     0.615557
    7      C      -4.987859    -0.190026     0.368008
    8      C      -6.473921    -0.342166     0.725730
    9      O       2.166447    -4.525693    -0.088442
   10      C       5.567855     2.590964    -0.288058
   11      C       4.427529     2.639330     0.740828
   12      O       3.179774     2.413155     0.050729
   13      C       2.013319     2.424935     0.902854
   14      C       0.774383     2.129677     0.038150
   15      O      -0.406267     2.008647     0.870997
   16      C      -0.928124     3.235235     1.429958
   17      C      -2.166616     2.884562     2.268622
   18      C       0.293358    -0.900557     2.866080
   19      C       1.756021    -1.236992     2.540417
   20      O       1.975808    -1.047250     1.125024
   21      C       3.350874    -1.210719     0.719511
   22      C       3.461723    -0.944767    -0.789330
   23      O       4.821561    -1.100601    -1.183112
   24      C      -2.647644     2.733862    -1.919321
   25      O      -3.738399     2.948480    -1.022051
   26      C      -2.233945     1.257313    -1.856807
   27      O      -1.021530     1.072896    -2.616170
   28      C      -0.486776    -0.269024    -2.543909
   29      C       0.817455    -0.316524    -3.353541
   30      H       1.229824    -2.980396    -1.086543
   31      H       0.754484    -4.610032    -1.602997
   32      H       0.168941    -3.707784     1.246456
   33      H      -0.688132    -4.917241     0.242818
   34      H      -2.154312    -2.905347     1.579077
   35      H      -2.976973    -3.652431     0.176125
   36      H      -2.936621    -1.332218    -0.921837
   37      H      -2.385278    -0.680463     0.651644
   38      H      -4.890476     0.075671    -0.688555
   39      H      -4.530095     0.587868     0.985262
   40      H      -6.940065    -1.103816     0.096612
   41      H      -6.998138     0.603026     0.568764
   42      H      -6.589852    -0.634366     1.771538
   43      H       2.538728    -3.831660     0.486346
   44      H       6.530410     2.739269     0.205963
   45      H       5.439438     3.374788    -1.037943
   46      H       5.585973     1.625174    -0.796838
   47      H       4.402626     3.619944     1.224740
   48      H       4.571094     1.860210     1.494699
   49      H       1.926869     3.407640     1.373063
   50      H       2.119000     1.654571     1.671338
   51      H       0.923387     1.177122    -0.475663
   52      H       0.624140     2.914784    -0.708330
   53      H      -1.202601     3.916520     0.619682
   54      H      -0.174574     3.705523     2.066802
   55      H      -2.917720     2.383727     1.654955
   56      H      -2.609237     3.790415     2.688075
   57      H      -1.893478     2.219454     3.091008
   58      H       0.085805    -1.095536     3.920154
   59      H      -0.383445    -1.505269     2.262320
   60      H       0.089665     0.152286     2.666466
   61      H       1.968624    -2.277706     2.800934
   62      H       2.418547    -0.574127     3.104562
   63      H       3.677261    -2.229743     0.945734
   64      H       3.971970    -0.496535     1.267189
   65      H       3.127020     0.070341    -1.015674
   66      H       2.844463    -1.651896    -1.344589
   67      H       5.347319    -0.464061    -0.669286
   68      H      -1.803955     3.364494    -1.627214
   69      H      -2.948445     2.991951    -2.938274
   70      H      -3.445437     2.700111    -0.125597
   71      H      -3.023923     0.626927    -2.274636
   72      H      -2.044761     0.976099    -0.818865
   73      H      -1.212459    -0.973676    -2.960113
   74      H      -0.285514    -0.527037    -1.499498
   75      H       0.626936    -0.067049    -4.399712
   76      H       1.253314    -1.316748    -3.310072
   77      H       1.542113     0.395954    -2.953204
 ----------------------------------------------------
 Molecular Point Group                 C1    NOp =  1
 Largest Abelian Subgroup              C1    NOp =  1
 Nuclear Repulsion Energy =  3373.5017408009 hartrees
 There are      120 alpha and      120 beta electrons
 Requested basis set is 3-21++G
 There are 260 shells and 521 basis functions

Total QAlloc Memory Limit   4000 MB
Mega-Array Size        61 MB
MEM_STATIC part        62 MB
 A cutoff of  1.0D-11 yielded  25659 shell pairs
 There are    107283 function pairs
 Smallest overlap matrix eigenvalue = 4.68E-06

  Scale SEOQF with 1.000000e-02/1.000000e-01/1.000000e-01

 Standard Electronic Orientation quadrupole field applied
 Nucleus-field energy     =     0.0000000396 hartrees
 Guess from superposition of atomic densities
 Warning:  Energy on first SCF cycle will be non-variational
 A restricted hybrid HF-DFT SCF calculation will be
 performed using Pulay DIIS extrapolation
 Exchange:     0.2000 Hartree-Fock + 0.0800 Slater + 0.7200 Becke88
 Correlation:  0.8100 LYP + 0.1900 VWN1RPA
 Using SG-1 standard quadrature grid
 SCF converges when DIIS error is below 1.0E-08
 ---------------------------------------
  Cycle       Energy         DIIS Error
 ---------------------------------------
    1   -1463.9829369076      3.21E-02
    2   -1459.8058250420      3.35E-03
    3   -1459.6663922812      4.15E-03
    4   -1460.1661243276      6.36E-04
    5   -1460.1755681399      1.85E-04
    6   -1460.1765161854      2.81E-05
    7   -1460.1765326197      1.45E-05
    8   -1460.1765378143      3.23E-06
    9   -1460.1765381291      6.93E-07
   10   -1460.1765381417      1.73E-07
   11   -1460.1765381440      8.26E-08
   12   -1460.1765381491      1.69E-08
   13   -1460.1765381393      2.39E-08
   14   -1460.1765381677      5.82E-09 Convergence criterion met
 ---------------------------------------
 SCF time:  CPU 85.35 s  wall 92.65 s
 SCF   energy in the final basis set = -1460.1765381677
 Total energy in the final basis set = -1460.1765381677
 Analysis of SCF Wavefunction
 
 --------------------------------------------------------------
                    Orbital Energies (a.u.)
 --------------------------------------------------------------
 
 Alpha MOs
 -- Occupied --
-19.083 -19.080 -19.079 -19.076 -19.071 -19.070 -19.070 -19.063
-19.058 -10.199 -10.198 -10.198 -10.196 -10.190 -10.185 -10.184
-10.183 -10.182 -10.181 -10.179 -10.179 -10.178 -10.172 -10.168
-10.143 -10.139 -10.127 -10.118 -10.113  -1.064  -1.060  -1.053
 -1.052  -1.051  -1.048  -1.043  -1.037  -1.032  -0.806  -0.796
 -0.793  -0.784  -0.776  -0.760  -0.740  -0.734  -0.724  -0.715
 -0.661  -0.650  -0.639  -0.637  -0.635  -0.632  -0.622  -0.617
 -0.617  -0.604  -0.543  -0.533  -0.531  -0.525  -0.523  -0.516
 -0.514  -0.509  -0.504  -0.502  -0.498  -0.496  -0.490  -0.485
 -0.483  -0.475  -0.475  -0.463  -0.461  -0.456  -0.454  -0.452
 -0.440  -0.435  -0.430  -0.422  -0.417  -0.416  -0.409  -0.406
 -0.405  -0.404  -0.400  -0.392  -0.392  -0.389  -0.388  -0.387
 -0.383  -0.379  -0.376  -0.375  -0.362  -0.358  -0.344  -0.338
 -0.336  -0.333  -0.333  -0.328  -0.324  -0.320  -0.307  -0.291
 -0.287  -0.284  -0.284  -0.282  -0.276  -0.270  -0.263  -0.254
 -- Virtual --
 -0.027  -0.019  -0.013  -0.008  -0.001  -0.000   0.003   0.007
  0.011   0.012   0.015   0.019   0.023   0.025   0.028   0.029
  0.031   0.035   0.037   0.038   0.042   0.043   0.047   0.048
  0.052   0.053   0.058   0.059   0.059   0.061   0.064   0.067
  0.068   0.070   0.074   0.077   0.078   0.078   0.082   0.086
  0.088   0.090   0.094   0.096   0.096   0.101   0.104   0.105
  0.106   0.109   0.111   0.113   0.115   0.116   0.117   0.120
  0.121   0.123   0.125   0.127   0.129   0.131   0.132   0.134
  0.135   0.136   0.138   0.139   0.141   0.143   0.144   0.146
  0.147   0.149   0.151   0.152   0.153   0.154   0.155   0.157
  0.158   0.160   0.163   0.164   0.165   0.166   0.168   0.169
  0.171   0.173   0.175   0.176   0.177   0.180   0.181   0.184
  0.185   0.187   0.189   0.191   0.194   0.195   0.196   0.197
  0.201   0.203   0.205   0.207   0.209   0.210   0.210   0.212
  0.213   0.215   0.217   0.218   0.220   0.222   0.225   0.226
  0.228   0.232   0.234   0.236   0.238   0.239   0.241   0.242
  0.246   0.248   0.248   0.251   0.252   0.254   0.254   0.258
  0.263   0.264   0.266   0.269   0.270   0.272   0.273   0.275
  0.276   0.280   0.282   0.283   0.286   0.288   0.290   0.292
  0.294   0.297   0.299   0.302   0.306   0.307   0.308   0.313
  0.313   0.317   0.321   0.323   0.327   0.328   0.331   0.332
  0.337   0.339   0.343   0.347   0.351   0.353   0.358   0.363
  0.365   0.366   0.370   0.372   0.376   0.377   0.380   0.383
  0.387   0.390   0.391   0.394   0.397   0.403   0.405   0.407
  0.409   0.411   0.413   0.419   0.419   0.421   0.423   0.427
  0.428   0.432   0.434   0.436   0.441   0.448   0.451   0.453
  0.454   0.458   0.460   0.462   0.467   0.470   0.476   0.480
  0.482   0.487   0.497   0.501   0.507   0.511   0.518   0.521
  0.529   0.534   0.535   0.542   0.546   0.557   0.572   0.577
  0.582   0.589   0.617   0.624   0.660   0.846   0.848   0.859
  0.866   0.872   0.872   0.878   0.883   0.886   0.893   0.896
  0.904   0.909   0.909   0.917   0.925   0.932   0.933   0.935
  0.945   0.947   0.951   0.953   0.957   0.963   0.963   0.966
  0.970   0.977   0.985   0.987   0.998   1.004   1.006   1.012
  1.014   1.019   1.025   1.036   1.040   1.045   1.053   1.059
  1.067   1.068   1.076   1.079   1.090   1.104   1.107   1.117
  1.122   1.144   1.145   1.174   1.188   1.193   1.198   1.210
  1.210   1.213   1.220   1.223   1.236   1.246   1.251   1.265
  1.268   1.272   1.278   1.282   1.285   1.296   1.300   1.305
  1.306   1.313   1.317   1.318   1.321   1.329   1.332   1.336
  1.338   1.344   1.352   1.354   1.368   1.374   1.379   1.384
  1.395   1.396   1.401   1.407   1.419   1.424   1.431   1.440
  1.452   1.465   1.473   1.479   1.488   1.510   1.536   1.563
  1.607   1.782   1.788   1.798   1.819   1.823   1.832   1.845
  1.856   1.866   1.879   1.889   1.894   1.912   1.912   1.922
  1.934   1.941   1.947   1.954   1.959   1.974   1.975   1.982
  1.993   2.008   2.026   2.055   2.061   2.074   2.089   2.094
  2.102   2.113   2.134   2.144   2.177   2.195   2.222   2.240
  2.248   2.278   2.300   2.331   2.371   2.379   2.397   2.442
  3.248   3.259   3.308   3.328   3.337   3.344   3.362   3.381
  3.397
 --------------------------------------------------------------
 
          Ground-State Mulliken Net Atomic Charges

     Atom                 Charge (a.u.)
  ----------------------------------------
      1 C                    -0.577872
      2 C                    -1.066545
      3 O                     0.381000
      4 C                    -1.649934
      5 C                    -0.871324
      6 O                     0.492084
      7 C                     0.231260
      8 C                    -1.408026
      9 O                    -0.247384
     10 C                    -1.313194
     11 C                     0.260204
     12 O                     0.449457
     13 C                    -1.798735
     14 C                    -0.763029
     15 O                     0.712356
     16 C                    -0.332211
     17 C                    -0.715892
     18 C                    -0.656070
     19 C                    -0.777211
     20 O                     0.651152
     21 C                    -2.116325
     22 C                    -0.508890
     23 O                    -0.135327
     24 C                    -1.304593
     25 O                    -0.216181
     26 C                    -0.064066
     27 O                     0.356252
     28 C                     0.326994
     29 C                    -1.585491
     30 H                     0.436865
     31 H                     0.308725
     32 H                     0.217579
     33 H                     0.243593
     34 H                     0.307708
     35 H                     0.291737
     36 H                     0.602506
     37 H                     0.580988
     38 H                     0.236155
     39 H                     0.194568
     40 H                     0.291140
     41 H                     0.277215
     42 H                     0.288653
     43 H                     0.589648
     44 H                     0.261053
     45 H                     0.293860
     46 H                     0.183686
     47 H                     0.302495
     48 H                     0.224697
     49 H                     0.408716
     50 H                     0.549674
     51 H                    -0.782729
     52 H                     0.420582
     53 H                     0.296709
     54 H                     0.155581
     55 H                    -0.058999
     56 H                     0.299654
     57 H                     0.368336
     58 H                     0.328066
     59 H                     0.363811
     60 H                     0.131840
     61 H                     0.289354
     62 H                     0.272660
     63 H                     0.164580
     64 H                     0.191098
     65 H                     0.922199
     66 H                     0.609227
     67 H                     0.500246
     68 H                     0.352955
     69 H                     0.320846
     70 H                     0.598389
     71 H                     0.551312
     72 H                    -0.498798
     73 H                     0.332219
     74 H                     0.197257
     75 H                     0.350817
     76 H                     0.240640
     77 H                     0.238429
  ----------------------------------------
  Sum of atomic charges =    -0.000000

 -----------------------------------------------------------------
                    Cartesian Multipole Moments
 -----------------------------------------------------------------
    Charge (ESU x 10^10)
                 0.0000
    Dipole Moment (Debye)
         X       1.9626      Y       3.6833      Z       5.8484
       Tot       7.1849
    Quadrupole Moments (Debye-Ang)
        XX    -199.1216     XY      20.8253     YY    -202.2820
        XZ      13.4823     YZ       7.8752     ZZ    -188.8921
    Octapole Moments (Debye-Ang^2)
       XXX      96.1394    XXY      77.7489    XYY     -16.2398
       YYY      90.8703    XXZ      72.5869    XYZ     -37.2528
       YYZ      36.9422    XZZ      -5.7610    YZZ      -9.3356
       ZZZ      20.3545
    Hexadecapole Moments (Debye-Ang^3)
      XXXX  -10887.7889   XXXY     484.2607   XXYY   -3243.2758
      XYYY     484.7751   YYYY   -6780.7260   XXXZ     286.0117
      XXYZ      40.2262   XYYZ      19.9777   YYYZ      92.5525
      XXZZ   -2385.6383   XYZZ     -21.9696   YYZZ   -1504.5206
      XZZZ      49.8155   YZZZ      14.1488   ZZZZ   -2955.1961
 -----------------------------------------------------------------
 Calculating analytic gradient of the SCF energy
 Gradient of Coulomb and Exchange Energy
            1           2           3           4           5           6
    1   1.5208762  -3.1132693   5.0235045  -2.8835731  -0.7535848  11.7158451
    2  10.2742796   0.2043877  12.7948066  -3.0585133  -1.3204960   4.1361155
    3  -4.0639717   6.4834743  -0.9995060  -0.2367436   7.2627421  -2.4170364
            7           8           9          10          11          12
    1   7.2833674   1.8732528  -2.4022630  -1.7906635  -2.3221546  -9.8369138
    2  12.7979901   5.0643793  17.4532959  -4.8047621  -3.4975223 -10.9757441
    3  -5.0481507  -0.0063505   5.4447608  -5.8465045   7.7098618  -0.0171014
           13          14          15          16          17          18
    1  16.1241804 -12.0526424   0.8660757   9.9909035  -8.7331683 -14.7393895
    2   4.7638766 -29.2295596  -9.9881997   6.5623612  -7.8812089   5.4777949
    3   8.7245578 -34.3848355  -1.4676624  -7.6999959   4.4133487  -9.3644491
           19          20          21          22          23          24
    1   3.8044852 -10.2360792  -5.9066879   1.6545880  -7.2205465   2.1191941
    2  -0.8246236   4.9775686  -7.3399018  13.6296474   7.0571001  -2.3839418
    3   0.6534918 -11.2712628  19.5417805 -19.8327331   9.0700772  -4.4595252
           25          26          27          28          29          30
    1  11.4919911   9.9628787   4.2348683  -6.6200335   9.7480126   4.1529111
    2 -11.3060591   6.4773561  -5.5032084   8.8372388  -4.1039656   3.2691935
    3  10.6386687  16.4187951  12.4591927  21.6210392   4.5293048   7.5010253
           31          32          33          34          35          36
    1   2.1298907  -0.3367660   2.9426968  -1.5862822   4.4838209   1.1955660
    2   4.7424417  -0.1142144   7.1840737   2.0091226   6.3660762   0.2674293
    3   6.1487860  -7.7238682   0.1369131  -7.1322891   2.1956723   3.7906006
           37          38          39          40          41          42
    1   9.5342122   2.0101223  -3.1890120   3.6592602   3.7098716   2.1086193
    2  -5.8168642  -2.3139952  -5.9746043   3.7229842  -4.2181101   1.3827771
    3  -3.9940082   6.2561287  -3.8700134   2.9576212   0.4496204  -5.5139329
           43          44          45          46          47          48
    1  -2.3040345  -5.7063202  -0.4123097  -2.5840241  -1.4044742  -2.2025115
    2  -3.8397160  -0.9643250  -4.9019535   3.7536609  -6.0108742   3.8304123
    3  -3.5744564  -1.9368426   4.3259491   3.3714739  -2.6106188  -5.2134073
           49          50          51          52          53          54
    1   0.0123980  -1.5825765  -6.0374550  -0.0873448   2.2900506  -3.0582878
    2  -6.2012642   3.5649642  12.5194459  -4.9906312  -5.6373945  -4.5419919
    3  -2.7009874  -4.8835758  22.6377660   3.8801970   4.2240961  -6.3598615
           55          56          57          58          59          60
    1   6.1308111   3.0539349  -0.9545355   1.6520804   5.0087603   3.2845500
    2   2.5973235  -5.1083649   3.0692881   0.8064320   1.2253502  -5.5586038
    3  -0.0971557  -2.8210393  -5.9255836  -6.1603885   4.0888879  -2.0671515
           61          62          63          64          65          66
    1  -1.8378685  -3.9668865  -3.6952671  -4.4825725  -4.3156687  -0.1471709
    2   6.8819447  -3.7371038   7.2124117  -4.6169532  -6.9134065   4.7679724
    3  -2.3829943  -4.3495493  -1.4592426  -4.9529291  -1.5644755   3.0433626
           67          68          69          70          71          72
    1  -4.7749776  -3.5596136   2.0120531  -1.0329635   3.4234410 -12.8942267
    2  -3.7564739  -4.3556887  -2.1831696  -0.1549286   2.4222065   6.4878634
    3  -2.0857248  -1.5235983   7.8002855  -4.5812196   3.3787021 -10.1900751
           73          74          75          76          77
    1   2.6742052   6.0775190   0.8170932  -3.2457966  -5.7679757
    2   6.7780672 -21.1538055  -1.3362839   5.3050262  -4.0562384
    3   4.1044629 -20.6444492   6.3742273   1.6878574   0.1105360
 Gradient of SCF Energy
            1           2           3           4           5           6
    1   0.0247380  -0.0027922  -0.0045571   0.0154441  -0.0120840   0.0073109
    2  -0.0146579   0.0043238  -0.0156053  -0.0025077   0.0020609   0.0198999
    3   0.0094027  -0.0004173   0.0158824  -0.0039185   0.0041041  -0.0108876
            7           8           9          10          11          12
    1   0.0152368  -0.0054740  -0.0164705   0.0051762  -0.0152195   0.0032428
    2  -0.0069177   0.0023014   0.0240092  -0.0009662  -0.0029746   0.0047580
    3   0.0017805  -0.0001422  -0.0011898  -0.0017845   0.0016566   0.0217953
           13          14          15          16          17          18
    1   0.0093689  -0.0169469   0.0073262   0.0083434  -0.0060604  -0.0041853
    2  -0.0012434  -0.0012924   0.0220226  -0.0091106   0.0002242  -0.0011272
    3  -0.0051312   0.0057129  -0.0032808  -0.0077917   0.0012815   0.0025968
           19          20          21          22          23          24
    1   0.0127575   0.0133690  -0.0008427   0.0313432  -0.0186244  -0.0267264
    2  -0.0001012  -0.0061178   0.0011769  -0.0059055   0.0178909   0.0107432
    3  -0.0141067   0.0159472   0.0055192  -0.0123683   0.0172332   0.0187494
           25          26          27          28          29          30
    1   0.0293305   0.0035702  -0.0073756  -0.0142025   0.0058451   0.0052472
    2  -0.0092538  -0.0019324  -0.0196515   0.0127188  -0.0039103  -0.0031696
    3  -0.0005040  -0.0015897   0.0113240   0.0018481  -0.0008622   0.0017332
           31          32          33          34          35          36
    1  -0.0055654  -0.0028686   0.0009943   0.0013613   0.0044522  -0.0037681
    2   0.0020484   0.0019095   0.0044167   0.0019816   0.0016708   0.0001036
    3  -0.0012902  -0.0041082  -0.0030638  -0.0042398  -0.0016819   0.0022117
           37          38          39          40          41          42
    1  -0.0037231  -0.0015047  -0.0027097  -0.0000264   0.0004536  -0.0003941
    2  -0.0017517  -0.0031147  -0.0046244   0.0016808  -0.0030967   0.0009479
    3   0.0010871   0.0026847  -0.0008271   0.0007364   0.0007188  -0.0018921
           43          44          45          46          47          48
    1  -0.0082570  -0.0023480   0.0009474   0.0006657  -0.0003592  -0.0005183
    2  -0.0066734  -0.0006568  -0.0002142   0.0008875  -0.0033141   0.0020128
    3  -0.0090476  -0.0021843   0.0014360   0.0019506  -0.0045009  -0.0061895
           49          50          51          52          53          54
    1  -0.0000847   0.0029078   0.0040188  -0.0016476  -0.0010701  -0.0012408
    2  -0.0037376   0.0020683  -0.0015124  -0.0016949  -0.0053024  -0.0044408
    3  -0.0042287  -0.0028062  -0.0029461   0.0027302   0.0024762  -0.0015306
           55          56          57          58          59          60
    1   0.0011307   0.0008867   0.0001617  -0.0008174   0.0006184   0.0009685
    2   0.0023749  -0.0027181   0.0019771   0.0017455   0.0011164  -0.0015537
    3  -0.0005796  -0.0005852  -0.0005646  -0.0038290   0.0021331   0.0033465
           61          62          63          64          65          66
    1  -0.0032696  -0.0048943  -0.0073321  -0.0062290   0.0044362  -0.0049436
    2   0.0043312  -0.0008483   0.0028505  -0.0014054  -0.0006071   0.0008566
    3  -0.0032855  -0.0035648  -0.0009348  -0.0033600  -0.0023136   0.0014285
           67          68          69          70          71          72
    1  -0.0158402  -0.0048073   0.0040571  -0.0003200   0.0047014   0.0014456
    2  -0.0114389  -0.0005979  -0.0026746   0.0016317   0.0013590   0.0005976
    3  -0.0049411   0.0032973  -0.0038389  -0.0144764  -0.0004188  -0.0037097
           73          74          75          76          77
    1   0.0030084   0.0020840   0.0004198  -0.0004152  -0.0008541
    2   0.0041744   0.0029687  -0.0009183   0.0031380  -0.0016381
    3  -0.0004945  -0.0027818   0.0017258  -0.0001767  -0.0001635
 Max gradient component =       3.134E-02
 RMS gradient           =       7.681E-03
 Gradient time:  CPU 24.89 s  wall 25.56 s
 Geometry Optimization Parameters
   NAtoms,    NIC,     NZ,  NCons,   NDum,   NFix, NCnnct, MaxDiis
       77     525       0       0       0       0       0       0


** GEOMETRY OPTIMIZATION IN DELOCALIZED INTERNAL COORDINATES **
   Searching for a Minimum

   Optimization Cycle:   1

                       Coordinates (Angstroms)
     ATOM              X           Y           Z
      1  C         1.012819   -3.991926   -0.739161
      2  C        -0.173659   -3.952119    0.237117
      3  O        -1.072278   -2.915967   -0.210763
      4  C        -2.326052   -2.836447    0.501589
      5  C        -2.951580   -1.477552    0.161088
      6  O        -4.321044   -1.448805    0.615557
      7  C        -4.987859   -0.190026    0.368008
      8  C        -6.473921   -0.342166    0.725730
      9  O         2.166447   -4.525693   -0.088442
     10  C         5.567855    2.590964   -0.288058
     11  C         4.427529    2.639330    0.740828
     12  O         3.179774    2.413155    0.050729
     13  C         2.013319    2.424935    0.902854
     14  C         0.774383    2.129677    0.038150
     15  O        -0.406267    2.008647    0.870997
     16  C        -0.928124    3.235235    1.429958
     17  C        -2.166616    2.884562    2.268622
     18  C         0.293358   -0.900557    2.866080
     19  C         1.756021   -1.236992    2.540417
     20  O         1.975808   -1.047250    1.125024
     21  C         3.350874   -1.210719    0.719511
     22  C         3.461723   -0.944767   -0.789330
     23  O         4.821561   -1.100601   -1.183112
     24  C        -2.647644    2.733862   -1.919321
     25  O        -3.738399    2.948480   -1.022051
     26  C        -2.233945    1.257313   -1.856807
     27  O        -1.021530    1.072896   -2.616170
     28  C        -0.486776   -0.269024   -2.543909
     29  C         0.817455   -0.316524   -3.353541
     30  H         1.229824   -2.980396   -1.086543
     31  H         0.754484   -4.610032   -1.602997
     32  H         0.168941   -3.707784    1.246456
     33  H        -0.688132   -4.917241    0.242818
     34  H        -2.154312   -2.905347    1.579077
     35  H        -2.976973   -3.652431    0.176125
     36  H        -2.936621   -1.332218   -0.921837
     37  H        -2.385278   -0.680463    0.651644
     38  H        -4.890476    0.075671   -0.688555
     39  H        -4.530095    0.587868    0.985262
     40  H        -6.940065   -1.103816    0.096612
     41  H        -6.998138    0.603026    0.568764
     42  H        -6.589852   -0.634366    1.771538
     43  H         2.538728   -3.831660    0.486346
     44  H         6.530410    2.739269    0.205963
     45  H         5.439438    3.374788   -1.037943
     46  H         5.585973    1.625174   -0.796838
     47  H         4.402626    3.619944    1.224740
     48  H         4.571094    1.860210    1.494699
     49  H         1.926869    3.407640    1.373063
     50  H         2.119000    1.654571    1.671338
     51  H         0.923387    1.177122   -0.475663
     52  H         0.624140    2.914784   -0.708330
     53  H        -1.202601    3.916520    0.619682
     54  H        -0.174574    3.705523    2.066802
     55  H        -2.917720    2.383727    1.654955
     56  H        -2.609237    3.790415    2.688075
     57  H        -1.893478    2.219454    3.091008
     58  H         0.085805   -1.095536    3.920154
     59  H        -0.383445   -1.505269    2.262320
     60  H         0.089665    0.152286    2.666466
     61  H         1.968624   -2.277706    2.800934
     62  H         2.418547   -0.574127    3.104562
     63  H         3.677261   -2.229743    0.945734
     64  H         3.971970   -0.496535    1.267189
     65  H         3.127020    0.070341   -1.015674
     66  H         2.844463   -1.651896   -1.344589
     67  H         5.347319   -0.464061   -0.669286
     68  H        -1.803955    3.364494   -1.627214
     69  H        -2.948445    2.991951   -2.938274
     70  H        -3.445437    2.700111   -0.125597
     71  H        -3.023923    0.626927   -2.274636
     72  H        -2.044761    0.976099   -0.818865
     73  H        -1.212459   -0.973676   -2.960113
     74  H        -0.285514   -0.527037   -1.499498
     75  H         0.626936   -0.067049   -4.399712
     76  H         1.253314   -1.316748   -3.310072
     77  H         1.542113    0.395954   -2.953204
   Point Group: c1    Number of degrees of freedom:   225


   Energy is  -1460.176538168


 Attempting to Generate Delocalized Internal Coordinates
 GETINT wrote B to file, NVib is          225
 calling HSSCONV
 HCONV 3*NATOMS:          231
 wrote HINT to file
  writing hessian 

225 Hessian modes will be used to form the next step
  Hessian Eigenvalues:
     0.002000    0.002000    0.002000    0.002787    0.002980    0.003841
     0.003963    0.004282    0.004331    0.004378    0.004408    0.004439
     0.004445    0.004591    0.004653    0.006144    0.009044    0.009514
     0.009582    0.009635    0.009710    0.009746    0.009798    0.009810
     0.009864    0.009932    0.009970    0.009981    0.010033    0.011862
     0.011942    0.012437    0.017822    0.022991    0.024046    0.031181
     0.031502    0.043686    0.048904    0.049029    0.049056    0.050053
     0.052304    0.052589    0.052683    0.052719    0.052753    0.052850
     0.052858    0.053037    0.053107    0.053634    0.053995    0.054278
     0.054305    0.054357    0.054781    0.056483    0.056585    0.056708
     0.056942    0.056964    0.057109    0.057623    0.058125    0.058246
     0.058507    0.058652    0.058778    0.058787    0.058852    0.058873
     0.058891    0.058957    0.059309    0.059317    0.062544    0.072076
     0.085489    0.087425    0.093093    0.106360    0.109454    0.110050
     0.110351    0.110699    0.110885    0.110894    0.111094    0.111114
     0.111142    0.111185    0.111675    0.111690    0.111702    0.112890
     0.134634    0.134856    0.135315    0.135535    0.135935    0.135954
     0.135959    0.136091    0.136274    0.136497    0.136556    0.136671
     0.136740    0.136921    0.136930    0.137507    0.154215    0.160000
     0.160000    0.160000    0.160000    0.160000    0.160000    0.160000
     0.160000    0.160000    0.160000    0.160000    0.160000    0.160000
     0.160000    0.160000    0.160001    0.173726    0.178634    0.179068
     0.200000    0.200000    0.220304    0.220386    0.220390    0.220441
     0.220446    0.220527    0.220544    0.220557    0.220581    0.220613
     0.220760    0.220889    0.250000    0.250000    0.250000    0.250000
     0.250000    0.250000    0.282694    0.285692    0.287845    0.288178
     0.288500    0.288705    0.288914    0.288958    0.289952    0.290374
     0.327551    0.340115    0.343007    0.343618    0.343672    0.343768
     0.343774    0.343783    0.343876    0.343887    0.343898    0.343961
     0.343961    0.343999    0.344062    0.344098    0.344150    0.344262
     0.344313    0.344384    0.344396    0.344497    0.344586    0.344719
     0.344875    0.344984    0.345178    0.345231    0.345248    0.345392
     0.345440    0.345444    0.345532    0.345540    0.345634    0.345774
     0.345789    0.345846    0.345906    0.345967    0.345982    0.346103
     0.346288    0.347219    0.348039    0.382578    0.387269    0.387955
     0.388488    0.389251    0.389610    0.390147    0.390816    0.391509
     0.391899    0.392014    0.392546    0.403838    0.411910    0.418256
     0.510191    0.523152    0.528834

 Minimum Search - Taking Simple RFO Step
 Searching for Lamda that Minimizes Along All modes
 Value Taken    Lamda =  -0.14039708
 Calculated Step too Large.  Step scaled by  0.363963
 Step Taken.  Stepsize is  0.300000

                             Maximum     Tolerance    Cnvgd?
         Gradient           0.112553      0.000300      NO
         Displacement       0.195042      0.001200      NO
         Energy change     *********      0.000001      NO


 New Cartesian Coordinates Obtained by Inverse Iteration

 Displacement from previous Coordinates is: 25.800132
 ----------------------------------------------------
       Standard Nuclear Orientation (Angstroms)
    I     Atom         X            Y            Z
 ----------------------------------------------------
    1      C       0.775852    -4.454846    -0.437025
    2      C      -0.265204    -4.663209     0.677664
    3      O      -1.329000    -3.695393     0.513511
    4      C      -2.451218    -3.905264     1.408173
    5      C      -3.292434    -2.627394     1.392611
    6      O      -4.553529    -2.898095     2.051711
    7      C      -5.434113    -1.747494     2.130302
    8      C      -6.786792    -2.211868     2.684641
    9      O       2.049345    -4.961770    -0.002916
   10      C       5.497251     2.281812    -0.035311
   11      C       4.266419     2.508491     0.851219
   12      O       3.115405     2.504155    -0.028949
   13      C       1.830932     2.719828     0.605236
   14      C       0.772355     2.693188    -0.510144
   15      O      -0.572820     2.788434     0.031637
   16      C      -0.968014     4.075577     0.574786
   17      C      -2.418665     3.927964     1.047460
   18      C       0.294432    -1.721719     3.513763
   19      C       1.728724    -1.951430     3.020934
   20      O       1.789889    -1.615339     1.610667
   21      C       3.122171    -1.669277     1.045784
   22      C       3.045514    -1.256655    -0.431051
   23      O       4.369524    -1.333871    -0.985672
   24      C      -1.810681     4.417633    -3.177314
   25      O      -3.049600     4.651561    -2.478296
   26      C      -1.565297     2.912093    -3.334340
   27      O      -0.241744     2.719720    -3.888577
   28      C       0.154252     1.327103    -4.005202
   29      C       1.580317     1.285360    -4.568906
   30      H       0.877210    -3.393014    -0.686806
   31      H       0.458023    -4.989847    -1.335215
   32      H       0.196420    -4.516344     1.659947
   33      H      -0.679091    -5.675298     0.611594
   34      H      -2.092900    -4.101518     2.423983
   35      H      -3.043354    -4.755421     1.054594
   36      H      -3.481257    -2.329087     0.357544
   37      H      -2.759579    -1.827723     1.917636
   38      H      -5.570655    -1.316961     1.132588
   39      H      -4.991420    -0.996304     2.793372
   40      H      -7.239849    -2.946215     2.013793
   41      H      -7.467036    -1.360960     2.777644
   42      H      -6.662041    -2.668353     3.669704
   43      H       2.444179    -4.309002     0.609727
   44      H       6.414923     2.283296     0.558962
   45      H       5.561640     3.083178    -0.775549
   46      H       5.442161     1.322993    -0.559286
   47      H       4.336200     3.483361     1.346665
   48      H       4.178831     1.720027     1.607284
   49      H       1.831822     3.694961     1.103118
   50      H       1.637107     1.930934     1.338730
   51      H       0.841649     1.746197    -1.047876
   52      H       0.946312     3.513838    -1.213675
   53      H      -0.898055     4.850266    -0.196728
   54      H      -0.322250     4.340924     1.417601
   55      H      -3.056125     3.638865     0.207599
   56      H      -2.792908     4.870269     1.455975
   57      H      -2.485651     3.161580     1.823888
   58      H       0.202227    -2.025337     4.560096
   59      H      -0.411877    -2.302704     2.919013
   60      H       0.026965    -0.666199     3.435469
   61      H       2.011964    -3.001254     3.157413
   62      H       2.420597    -1.311717     3.580667
   63      H       3.524504    -2.686051     1.119751
   64      H       3.776373    -0.981861     1.594047
   65      H       2.646039    -0.242701    -0.516322
   66      H       2.396352    -1.943540    -0.979854
   67      H       4.968276    -0.736400    -0.493228
   68      H      -0.981544     4.865681    -2.621098
   69      H      -1.868866     4.884814    -4.163276
   70      H      -3.032403     4.242181    -1.586242
   71      H      -2.312474     2.478028    -4.007278
   72      H      -1.620779     2.426383    -2.356499
   73      H      -0.532709     0.804982    -4.680308
   74      H       0.123355     0.850565    -3.019088
   75      H       1.614543     1.753125    -5.556181
   76      H       1.918755     0.250237    -4.663381
   77      H       2.268818     1.818490    -3.908429
 ----------------------------------------------------
 Molecular Point Group                 C1    NOp =  1
 Largest Abelian Subgroup              C1    NOp =  1
 Nuclear Repulsion Energy =  3062.7272900509 hartrees
 There are      120 alpha and      120 beta electrons
 Applying Cartesian multipole field
    Component          Value
    ---------          -----
     (2,0,0)        1.00000E-12
     (0,2,0)        2.00000E-11
     (0,0,2)       -3.00000E-11
 Nucleus-field energy     =     0.0000000474 hartrees
 Requested basis set is 3-21++G
 There are 260 shells and 521 basis functions
 A cutoff of  1.0D-11 yielded  23525 shell pairs
 There are     97775 function pairs
 Smallest overlap matrix eigenvalue = 8.84E-06
 Guess MOs from SCF MO coefficient file
Reading MOs from coefficient file
Reading MOs from coefficient file
 A restricted hybrid HF-DFT SCF calculation will be
 performed using Pulay DIIS extrapolation
 Exchange:     0.2000 Hartree-Fock + 0.0800 Slater + 0.7200 Becke88
 Correlation:  0.8100 LYP + 0.1900 VWN1RPA
 Using SG-1 standard quadrature grid
 SCF converges when DIIS error is below 1.0E-08
Geometry optimization detected.  Setting ReadMinima to 0
Setting SaveMinima to 0
 Inaccurate integrated density:
   Number of electrons =   240
   Numerical integral  =   251.460057044513
   Relative error      =     4.7750237685 %
 ---------------------------------------
  Cycle       Energy         DIIS Error
 ---------------------------------------
    1   -1454.9062164341      4.44E-02
    2   -1303.2129060068      3.43E-02
    3    -912.1459625308      8.02E-02
    4   -1342.5262185870      4.14E-02
    5   -1365.0388113997      3.12E-02
    6   -1207.5973536891      4.09E-02
    7   -1385.8518032808      2.60E-02
    8   -1430.2119535730      2.04E-02
    9   -1385.7609569165      2.63E-02
   10   -1459.2648001292      5.12E-03
   11   -1459.0032997558      6.41E-03
   12   -1460.1084672815      1.28E-03
   13   -1460.1394912407      9.47E-04
   14   -1460.1638632185      5.01E-04
   15   -1460.1704350951      3.98E-04
   16   -1460.1755394122      1.18E-04
   17   -1460.1760097286      3.42E-05
   18   -1460.1760442890      1.01E-05
   19   -1460.1760471357      4.01E-06
   20   -1460.1760475506      1.12E-06
   21   -1460.1760475851      4.40E-07
   22   -1460.1760475925      1.37E-07
   23   -1460.1760475949      5.04E-08
   24   -1460.1760475926      1.56E-08
   25   -1460.1760475939      5.11E-09 Convergence criterion met
 ---------------------------------------
 SCF time:  CPU 142.51 s  wall 155.45 s
 SCF   energy in the final basis set = -1460.1760475939
 Total energy in the final basis set = -1460.1760475939
 Analysis of SCF Wavefunction
 
 --------------------------------------------------------------
                    Orbital Energies (a.u.)
 --------------------------------------------------------------
 
 Alpha MOs
 -- Occupied --
-19.083 -19.079 -19.077 -19.076 -19.069 -19.069 -19.067 -19.066
-19.062 -10.199 -10.198 -10.198 -10.196 -10.191 -10.189 -10.187
-10.183 -10.182 -10.182 -10.180 -10.180 -10.179 -10.177 -10.173
-10.139 -10.138 -10.133 -10.122 -10.114  -1.059  -1.055  -1.049
 -1.046  -1.045  -1.040  -1.040  -1.035  -1.030  -0.805  -0.798
 -0.793  -0.782  -0.778  -0.760  -0.743  -0.733  -0.726  -0.716
 -0.658  -0.650  -0.637  -0.635  -0.633  -0.632  -0.621  -0.615
 -0.615  -0.612  -0.540  -0.529  -0.529  -0.523  -0.520  -0.517
 -0.514  -0.508  -0.503  -0.502  -0.497  -0.493  -0.489  -0.486
 -0.482  -0.477  -0.474  -0.462  -0.461  -0.456  -0.454  -0.452
 -0.438  -0.431  -0.429  -0.422  -0.415  -0.412  -0.407  -0.405
 -0.404  -0.403  -0.401  -0.393  -0.391  -0.389  -0.389  -0.385
 -0.385  -0.380  -0.376  -0.375  -0.364  -0.360  -0.344  -0.337
 -0.335  -0.332  -0.329  -0.327  -0.321  -0.319  -0.316  -0.292
 -0.286  -0.283  -0.282  -0.282  -0.276  -0.268  -0.264  -0.260
 -- Virtual --
 -0.028  -0.019  -0.014  -0.010  -0.003  -0.001   0.001   0.002
  0.008   0.010   0.011   0.017   0.019   0.020   0.022   0.023
  0.026   0.027   0.028   0.033   0.035   0.037   0.040   0.043
  0.046   0.047   0.049   0.050   0.053   0.055   0.056   0.058
  0.060   0.062   0.063   0.066   0.068   0.071   0.074   0.076
  0.077   0.081   0.083   0.085   0.088   0.089   0.091   0.092
  0.097   0.097   0.098   0.101   0.104   0.106   0.108   0.110
  0.112   0.115   0.117   0.120   0.122   0.124   0.125   0.127
  0.128   0.128   0.129   0.132   0.132   0.135   0.136   0.138
  0.140   0.141   0.143   0.144   0.145   0.147   0.147   0.149
  0.150   0.152   0.153   0.154   0.156   0.157   0.159   0.161
  0.162   0.164   0.165   0.167   0.167   0.168   0.169   0.171
  0.174   0.176   0.177   0.179   0.181   0.183   0.186   0.186
  0.188   0.189   0.192   0.194   0.197   0.199   0.200   0.201
  0.202   0.204   0.205   0.207   0.208   0.211   0.212   0.213
  0.214   0.215   0.217   0.219   0.222   0.223   0.226   0.228
  0.229   0.232   0.233   0.233   0.236   0.237   0.240   0.245
  0.245   0.247   0.249   0.252   0.253   0.253   0.257   0.260
  0.261   0.263   0.265   0.266   0.271   0.273   0.276   0.276
  0.278   0.281   0.282   0.283   0.287   0.288   0.289   0.291
  0.297   0.299   0.302   0.305   0.307   0.311   0.313   0.316
  0.320   0.321   0.324   0.326   0.327   0.331   0.331   0.337
  0.340   0.345   0.349   0.351   0.353   0.358   0.364   0.364
  0.367   0.370   0.373   0.376   0.378   0.383   0.385   0.388
  0.391   0.392   0.394   0.397   0.401   0.402   0.404   0.407
  0.409   0.411   0.416   0.417   0.421   0.422   0.424   0.426
  0.431   0.432   0.436   0.443   0.445   0.447   0.450   0.452
  0.460   0.462   0.466   0.472   0.478   0.487   0.489   0.491
  0.494   0.498   0.504   0.509   0.513   0.520   0.523   0.527
  0.544   0.554   0.566   0.590   0.596   0.832   0.836   0.842
  0.847   0.848   0.854   0.860   0.863   0.870   0.872   0.877
  0.881   0.890   0.894   0.898   0.900   0.903   0.905   0.913
  0.916   0.925   0.925   0.928   0.933   0.936   0.943   0.947
  0.947   0.954   0.957   0.961   0.963   0.967   0.972   0.973
  0.979   0.987   0.990   0.991   0.997   1.005   1.007   1.020
  1.029   1.039   1.045   1.048   1.057   1.069   1.077   1.086
  1.089   1.099   1.106   1.116   1.130   1.160   1.162   1.167
  1.170   1.176   1.183   1.186   1.193   1.205   1.210   1.217
  1.225   1.232   1.242   1.247   1.250   1.255   1.261   1.265
  1.274   1.281   1.283   1.287   1.290   1.291   1.295   1.300
  1.301   1.309   1.311   1.314   1.324   1.331   1.332   1.335
  1.339   1.350   1.352   1.357   1.365   1.376   1.383   1.392
  1.395   1.403   1.410   1.414   1.431   1.438   1.446   1.474
  1.501   1.757   1.777   1.780   1.798   1.802   1.806   1.813
  1.819   1.830   1.845   1.852   1.856   1.877   1.886   1.892
  1.904   1.907   1.915   1.917   1.928   1.930   1.937   1.943
  1.948   1.955   1.973   2.023   2.036   2.042   2.051   2.059
  2.068   2.077   2.083   2.108   2.130   2.152   2.185   2.188
  2.214   2.229   2.257   2.287   2.299   2.311   2.344   2.385
  3.191   3.223   3.264   3.274   3.283   3.290   3.299   3.310
  3.311
 --------------------------------------------------------------
 
          Ground-State Mulliken Net Atomic Charges

     Atom                 Charge (a.u.)
  ----------------------------------------
      1 C                    -0.443018
      2 C                    -1.090930
      3 O                     0.275780
      4 C                    -0.572425
      5 C                    -1.390466
      6 O                     0.275614
      7 C                    -0.201746
      8 C                    -1.125770
      9 O                    -0.269712
     10 C                    -1.079546
     11 C                    -0.093836
     12 O                     0.427042
     13 C                    -2.659154
     14 C                    -0.325094
     15 O                     0.393841
     16 C                    -0.453333
     17 C                    -1.020318
     18 C                    -1.000674
     19 C                    -0.478940
     20 O                     0.415691
     21 C                    -1.716612
     22 C                    -0.450466
     23 O                    -0.188567
     24 C                    -0.547318
     25 O                    -0.333961
     26 C                    -0.794937
     27 O                     0.203552
     28 C                    -0.370660
     29 C                    -1.261024
     30 H                     0.400461
     31 H                     0.323103
     32 H                     0.253511
     33 H                     0.241894
     34 H                     0.344353
     35 H                     0.327899
     36 H                     0.373897
     37 H                     0.417694
     38 H                     0.258024
     39 H                     0.255247
     40 H                     0.296479
     41 H                     0.245027
     42 H                     0.291685
     43 H                     0.559171
     44 H                     0.261350
     45 H                     0.294528
     46 H                     0.226617
     47 H                     0.301560
     48 H                     0.225142
     49 H                     0.341055
     50 H                     0.340234
     51 H                     1.011768
     52 H                     0.412324
     53 H                     0.274527
     54 H                     0.225891
     55 H                     0.181366
     56 H                     0.263981
     57 H                     0.283759
     58 H                     0.240191
     59 H                     0.296556
     60 H                     0.282026
     61 H                     0.305007
     62 H                     0.280552
     63 H                     0.249763
     64 H                     0.187369
     65 H                     0.487831
     66 H                     0.471555
     67 H                     0.498581
     68 H                     0.386027
     69 H                     0.323237
     70 H                     0.522572
     71 H                     0.353795
     72 H                     0.403164
     73 H                     0.316726
     74 H                     0.212898
     75 H                     0.288706
     76 H                     0.241910
     77 H                     0.295971
  ----------------------------------------
  Sum of atomic charges =    -0.000000

 -----------------------------------------------------------------
                    Cartesian Multipole Moments
 -----------------------------------------------------------------
    Charge (ESU x 10^10)
                 0.0000
    Dipole Moment (Debye)
         X       1.6518      Y       2.5651      Z       6.5897
       Tot       7.2617
    Quadrupole Moments (Debye-Ang)
        XX    -191.2528     XY      18.9407     YY    -214.5959
        XZ      10.9867     YZ      12.7403     ZZ    -188.9150
    Octapole Moments (Debye-Ang^2)
       XXX      52.3099    XXY      47.7449    XYY      23.1109
       YYY      52.3464    XXZ      99.9569    XYZ     -69.9954
       YYZ      92.8677    XZZ      16.0423    YZZ     -49.0185
       ZZZ      28.7246
    Hexadecapole Moments (Debye-Ang^3)
      XXXX  -10197.0753   XXXY     -96.1304   XXYY   -4197.4324
      XYYY     180.1905   YYYY  -11697.8400   XXXZ     696.7753
      XXYZ     787.1243   XYYZ     188.5535   YYYZ    2132.3856
      XXZZ   -2828.4093   XYZZ    -151.7454   YYZZ   -2906.4072
      XZZZ     668.7614   YZZZ    1862.4751   ZZZZ   -5560.2634
 -----------------------------------------------------------------
 Calculating analytic gradient of the SCF energy
 Gradient of Coulomb and Exchange Energy
            1           2           3           4           5           6
    1   3.5017995  -2.8843817   4.0437260   9.6186577  -2.7715594   6.7219889
    2  11.5269663  -0.1242074   7.7468109 -11.5118180  18.7252328   2.2230228
    3  -2.6783311   7.2102255   0.9777460   2.7435229  -4.4224843  -2.3586165
            7           8           9          10          11          12
    1   5.7802425  -0.2657271  -1.7133787   1.2110853  -6.3222265  -6.7728942
    2   7.3014316  -2.1764408  14.8832536  -4.0927636  -3.7087896  -7.6127232
    3  -3.2489323   0.7993416   6.9281619  -5.7625857   5.8729346  -1.6922444
           13          14          15          16          17          18
    1  -2.4834247  -1.9390658   1.7517815   9.4704145  -7.2399680 -10.6853519
    2  -5.0738925  -4.4079859  -3.3308148   3.3830366  -5.3710108   4.0967447
    3   7.7586690 -19.3927379  -1.7938512  -4.8513691   1.2076067  -5.3126613
           19          20          21          22          23          24
    1   4.5619727  -5.8055872  -0.4279772  -2.3959670  -5.1413807   7.0861841
    2  -3.1769785   2.0257496  -8.8480985  11.1106776   7.5650621   3.2511609
    3  -1.3586522  -8.2531679  11.2688950 -15.6119925   8.5363047   1.8476891
           25          26          27          28          29          30
    1   8.1296241  -2.2126820   1.4913034  -7.2488192   6.7037779  -0.8993115
    2 -10.4346339  -8.6733020  -3.9655195  -3.1315355   1.1579283  -5.4507126
    3   9.2848122   9.5316141   9.9822086  10.2817751   5.1507624   0.8853072
           31          32          33          34          35          36
    1   2.5858140  -1.0434631   2.0443442  -2.1342041   3.6657906   1.9593164
    2   3.8097328   0.3287837   6.9116068   2.0050667   5.3432466  -1.1128638
    3   6.0347657  -6.8775885   0.6643545  -5.7201749   2.2471665   5.5385447
           37          38          39          40          41          42
    1   0.1754577   1.9262171  -1.2095647   3.0532227   4.0060227   0.5032787
    2  -3.9346870  -2.6266900  -4.1551296   3.3823732  -3.4760473   2.1579987
    3  -3.1331606   4.9058206  -4.0419597   2.7631967  -0.7840623  -4.9326672
           43          44          45          46          47          48
    1  -2.3644339  -5.4910335  -1.4614895  -1.8582838  -1.7257259  -0.2033303
    2  -2.8211639  -0.0344811  -4.7703877   3.8295429  -5.6715761   3.8588066
    3  -3.1203729  -2.4454615   4.0301950   2.9456022  -2.9407509  -5.3939610
           49          50          51          52          53          54
    1  -1.0988519   1.0720945   2.4343452  -1.5826056   0.3528536  -2.8805689
    2  -5.7522465   3.7370831   0.6582082  -4.8819378  -5.7542174  -2.7896691
    3  -3.0551526  -4.9010348   5.3330519   3.3598403   3.8517873  -6.2310860
           55          56          57          58          59          60
    1   4.5278453   2.9306305   1.0000778   1.1342550   4.3249710   2.0711435
    2   1.3177124  -5.1119973   3.5883299   1.6248184   0.4048840  -5.8237597
    3   2.7215720  -2.4774032  -5.0396865  -6.6314219   3.0058879  -1.0214190
           61          62          63          64          65          66
    1  -1.9592890  -3.5589045  -3.0952612  -4.8650252  -3.7528172   2.5922671
    2   6.1094829  -3.3826430   5.7158968  -4.5434307  -1.6264459   5.4078051
    3  -1.5512724  -4.0981549  -0.7918086  -4.7068414   2.4140034   5.3396677
           67          68          69          70          71          72
    1  -5.0563042  -3.0019848   0.2517256   1.2861311   3.9213573   0.3376062
    2  -3.0395471  -2.7210147  -3.0871499   1.0132179   2.0772707   3.7481185
    3  -1.7664958  -2.4361459   6.6437785  -4.5980550   4.2132439  -5.1348326
           73          74          75          76          77
    1   2.8520823   3.0799945  -0.6823159  -2.5965544  -5.3296884
    2   3.4803788   2.1478350  -2.2784146   5.3525005  -2.5210502
    3   4.4267118  -5.3955126   5.6995270   1.7418622  -2.1840475
 Gradient of SCF Energy
            1           2           3           4           5           6
    1   0.0228669  -0.0032094  -0.0002504   0.0114296  -0.0088274   0.0023567
    2  -0.0131476   0.0029030  -0.0149094   0.0014022  -0.0019304   0.0169408
    3   0.0041476   0.0014147   0.0103652  -0.0053157   0.0065891  -0.0060364
            7           8           9          10          11          12
    1   0.0115170  -0.0041057  -0.0147539   0.0011888  -0.0119283   0.0012008
    2  -0.0045730   0.0017950   0.0190995  -0.0011933  -0.0008405   0.0057631
    3  -0.0036353   0.0012513   0.0036709  -0.0015702   0.0002842   0.0169153
           13          14          15          16          17          18
    1   0.0072010  -0.0139902   0.0087913   0.0064131  -0.0040857  -0.0026644
    2  -0.0024818  -0.0037090   0.0165467  -0.0070651   0.0000822   0.0002876
    3  -0.0032797   0.0011374   0.0007171  -0.0064312  -0.0003304   0.0031820
           19          20          21          22          23          24
    1   0.0077906   0.0113608   0.0006230   0.0197895  -0.0115953  -0.0214384
    2   0.0011675  -0.0052506   0.0000047  -0.0021647   0.0117489   0.0082543
    3  -0.0123570   0.0102232   0.0034737  -0.0153447   0.0175827   0.0068179
           25          26          27          28          29          30
    1   0.0207585   0.0077891  -0.0104824  -0.0095576   0.0032236   0.0069820
    2  -0.0094500   0.0003792  -0.0134319   0.0080152  -0.0027070  -0.0009636
    3   0.0048484  -0.0012435   0.0027883   0.0052397  -0.0011638  -0.0021056
           31          32          33          34          35          36
    1  -0.0057668  -0.0027503  -0.0012484   0.0003137   0.0027086  -0.0020813
    2   0.0018288   0.0019809   0.0040158   0.0021887   0.0018794  -0.0022630
    3  -0.0001571  -0.0025742  -0.0025286  -0.0030562  -0.0018178   0.0033844
           37          38          39          40          41          42
    1  -0.0019762  -0.0011179  -0.0020368  -0.0000565   0.0009012  -0.0006445
    2  -0.0030017  -0.0026808  -0.0038083   0.0011422  -0.0022244   0.0006797
    3   0.0012106   0.0034370  -0.0006266   0.0005486  -0.0001615  -0.0008939
           43          44          45          46          47          48
    1  -0.0070863  -0.0013223  -0.0004353   0.0025456  -0.0003910   0.0019064
    2  -0.0046660  -0.0012555   0.0007036  -0.0007010  -0.0020490   0.0018709
    3  -0.0065354  -0.0028317   0.0020053   0.0015862  -0.0040706  -0.0033186
           49          50          51          52          53          54
    1  -0.0000699   0.0030971   0.0034007  -0.0024622  -0.0028177  -0.0010895
    2  -0.0022285   0.0018151  -0.0000346  -0.0000197  -0.0030917  -0.0032260
    3  -0.0037136  -0.0019536  -0.0011211   0.0023182   0.0016842  -0.0014982
           55          56          57          58          59          60
    1   0.0020240  -0.0002874   0.0007849  -0.0007910   0.0001549   0.0003392
    2   0.0024093  -0.0025006   0.0017760   0.0008033   0.0005501  -0.0020463
    3  -0.0013891  -0.0002064   0.0009078  -0.0023863   0.0022053   0.0010397
           61          62          63          64          65          66
    1  -0.0029558  -0.0037597  -0.0050740  -0.0049960   0.0020188  -0.0048724
    2   0.0029165  -0.0003295   0.0015483  -0.0011905  -0.0015712  -0.0011851
    3  -0.0015728  -0.0017923  -0.0007120  -0.0017746  -0.0002896   0.0017785
           67          68          69          70          71          72
    1  -0.0084514  -0.0039928   0.0040819  -0.0010358   0.0039334   0.0022904
    2  -0.0082783  -0.0004797  -0.0025944   0.0033678   0.0012302   0.0026392
    3  -0.0029280   0.0017111  -0.0031430  -0.0065507   0.0000842  -0.0040083
           73          74          75          76          77
    1   0.0033379   0.0015759   0.0006402  -0.0004519  -0.0004268
    2   0.0024585   0.0021398  -0.0009762   0.0024209  -0.0005351
    3   0.0006318  -0.0024231   0.0009796  -0.0002341  -0.0010783
 Max gradient component =       2.287E-02
 RMS gradient           =       5.937E-03
 Gradient time:  CPU 19.45 s  wall 20.02 s
 Geometry Optimization Parameters
   NAtoms,    NIC,     NZ,  NCons,   NDum,   NFix, NCnnct, MaxDiis
       77     525       0       0       0       0       0       0

 Cartesian Hessian Update
 Hessian Updated using BFGS Update


** GEOMETRY OPTIMIZATION IN DELOCALIZED INTERNAL COORDINATES **
   Searching for a Minimum

   Optimization Cycle:   2

                       Coordinates (Angstroms)
     ATOM              X           Y           Z
      1  C         0.775852   -4.454846   -0.437025
      2  C        -0.265204   -4.663209    0.677664
      3  O        -1.329000   -3.695393    0.513511
      4  C        -2.451218   -3.905264    1.408173
      5  C        -3.292434   -2.627394    1.392611
      6  O        -4.553529   -2.898095    2.051711
      7  C        -5.434113   -1.747494    2.130302
      8  C        -6.786792   -2.211868    2.684641
      9  O         2.049345   -4.961770   -0.002916
     10  C         5.497251    2.281812   -0.035311
     11  C         4.266419    2.508491    0.851219
     12  O         3.115405    2.504155   -0.028949
     13  C         1.830932    2.719828    0.605236
     14  C         0.772355    2.693188   -0.510144
     15  O        -0.572820    2.788434    0.031637
     16  C        -0.968014    4.075577    0.574786
     17  C        -2.418665    3.927964    1.047460
     18  C         0.294432   -1.721719    3.513763
     19  C         1.728724   -1.951430    3.020934
     20  O         1.789889   -1.615339    1.610667
     21  C         3.122171   -1.669277    1.045784
     22  C         3.045514   -1.256655   -0.431051
     23  O         4.369524   -1.333871   -0.985672
     24  C        -1.810681    4.417633   -3.177314
     25  O        -3.049600    4.651561   -2.478296
     26  C        -1.565297    2.912093   -3.334340
     27  O        -0.241744    2.719720   -3.888577
     28  C         0.154252    1.327103   -4.005202
     29  C         1.580317    1.285360   -4.568906
     30  H         0.877210   -3.393014   -0.686806
     31  H         0.458023   -4.989847   -1.335215
     32  H         0.196420   -4.516344    1.659947
     33  H        -0.679091   -5.675298    0.611594
     34  H        -2.092900   -4.101518    2.423983
     35  H        -3.043354   -4.755421    1.054594
     36  H        -3.481257   -2.329087    0.357544
     37  H        -2.759579   -1.827723    1.917636
     38  H        -5.570655   -1.316961    1.132588
     39  H        -4.991420   -0.996304    2.793372
     40  H        -7.239849   -2.946215    2.013793
     41  H        -7.467036   -1.360960    2.777644
     42  H        -6.662041   -2.668353    3.669704
     43  H         2.444179   -4.309002    0.609727
     44  H         6.414923    2.283296    0.558962
     45  H         5.561640    3.083178   -0.775549
     46  H         5.442161    1.322993   -0.559286
     47  H         4.336200    3.483361    1.346665
     48  H         4.178831    1.720027    1.607284
     49  H         1.831822    3.694961    1.103118
     50  H         1.637107    1.930934    1.338730
     51  H         0.841649    1.746197   -1.047876
     52  H         0.946312    3.513838   -1.213675
     53  H        -0.898055    4.850266   -0.196728
     54  H        -0.322250    4.340924    1.417601
     55  H        -3.056125    3.638865    0.207599
     56  H        -2.792908    4.870269    1.455975
     57  H        -2.485651    3.161580    1.823888
     58  H         0.202227   -2.025337    4.560096
     59  H        -0.411877   -2.302704    2.919013
     60  H         0.026965   -0.666199    3.435469
     61  H         2.011964   -3.001254    3.157413
     62  H         2.420597   -1.311717    3.580667
     63  H         3.524504   -2.686051    1.119751
     64  H         3.776373   -0.981861    1.594047
     65  H         2.646039   -0.242701   -0.516322
     66  H         2.396352   -1.943540   -0.979854
     67  H         4.968276   -0.736400   -0.493228
     68  H        -0.981544    4.865681   -2.621098
     69  H        -1.868866    4.884814   -4.163276
     70  H        -3.032403    4.242181   -1.586242
     71  H        -2.312474    2.478028   -4.007278
     72  H        -1.620779    2.426383   -2.356499
     73  H        -0.532709    0.804982   -4.680308
     74  H         0.123355    0.850565   -3.019088
     75  H         1.614543    1.753125   -5.556181
     76  H         1.918755    0.250237   -4.663381
     77  H         2.268818    1.818490   -3.908429
   Point Group: c1    Number of degrees of freedom:   225


   Energy is  -1460.176047594

 GETINT wrote B to file, NVib is          225
 Hessian Updated using BFGS Update

207 Hessian modes will be used to form the next step
  Hessian Eigenvalues:
     0.002000    0.002430    0.002835    0.003086    0.003843    0.003963
     0.004282    0.004363    0.004408    0.004439    0.004445    0.004522
     0.004607    0.004654    0.006150    0.009097    0.009515    0.009582
     0.009655    0.009710    0.009796    0.009810    0.009858    0.009932
     0.009952    0.009971    0.010017    0.010039    0.011852    0.012434
     0.017545    0.019906    0.023192    0.024687    0.031312    0.031946
     0.044151    0.049004    0.049053    0.049204    0.050035    0.052303
     0.052573    0.052606    0.052683    0.052743    0.052858    0.052908
     0.053037    0.053612    0.053916    0.054159    0.054264    0.054350
     0.054780    0.056245    0.056501    0.056586    0.056709    0.056953
     0.056965    0.057109    0.058088    0.058151    0.058479    0.058614
     0.058739    0.058787    0.058849    0.058870    0.058888    0.058942
     0.059245    0.059313    0.061896    0.065373    0.072077    0.085489
     0.087437    0.093949    0.106870    0.109446    0.110046    0.110341
     0.110687    0.110839    0.110898    0.111088    0.111102    0.111170
     0.111227    0.111678    0.111685    0.111928    0.112940    0.134261
     0.134828    0.135294    0.135605    0.135895    0.135944    0.135980
     0.136090    0.136259    0.136323    0.136509    0.136610    0.136736
     0.136928    0.137302    0.139914    0.153876    0.158804    0.160001
     0.172591    0.176241    0.178659    0.188788    0.199989    0.203467
     0.214488    0.220328    0.220403    0.220440    0.220464    0.220505
     0.220546    0.220576    0.220592    0.220699    0.220834    0.243443
     0.249798    0.282609    0.285402    0.286938    0.287828    0.288304
     0.288529    0.288797    0.288934    0.289864    0.290068    0.326393
     0.328760    0.340038    0.343021    0.343616    0.343681    0.343746
     0.343779    0.343810    0.343878    0.343891    0.343925    0.343960
     0.343981    0.344038    0.344077    0.344136    0.344247    0.344306
     0.344347    0.344385    0.344494    0.344558    0.344673    0.344797
     0.344868    0.344988    0.345154    0.345244    0.345388    0.345429
     0.345442    0.345510    0.345536    0.345592    0.345703    0.345779
     0.345808    0.345836    0.345884    0.345939    0.345999    0.346246
     0.347191    0.348014    0.359052    0.382680    0.387452    0.388113
     0.388729    0.389351    0.389757    0.390479    0.391161    0.391617
     0.391806    0.392389    0.399439    0.407196    0.415913    0.508740
     0.517878    0.527061    0.706693

 Minimum Search - Taking Simple RFO Step
 Searching for Lamda that Minimizes Along All modes
 Value Taken    Lamda =  -0.03248673
 Calculated Step too Large.  Step scaled by  0.513618
 Step Taken.  Stepsize is  0.300000

                             Maximum     Tolerance    Cnvgd?
         Gradient           0.019810      0.000300      NO
         Displacement       0.119447      0.001200      NO
         Energy change      0.000491      0.000001      NO


 New Cartesian Coordinates Obtained by Inverse Iteration

 Displacement from previous Coordinates is:  6.476841
 ----------------------------------------------------
       Standard Nuclear Orientation (Angstroms)
    I     Atom         X            Y            Z
 ----------------------------------------------------
    1      C       0.740099    -4.286358    -0.371330
    2      C      -0.347854    -4.457292     0.706834
    3      O      -1.439266    -3.526115     0.434363
    4      C      -2.596169    -3.746861     1.302781
    5      C      -3.490685    -2.522242     1.161253
    6      O      -4.755561    -2.857927     1.808765
    7      C      -5.738129    -1.774324     1.794043
    8      C      -7.046381    -2.332590     2.354826
    9      O       2.021782    -4.783258     0.130013
   10      C       5.678076     2.363640    -0.222972
   11      C       4.590830     2.557964     0.834485
   12      O       3.332018     2.513809     0.093888
   13      C       2.104750     2.689002     0.864281
   14      C       0.980830     2.594592    -0.175808
   15      O      -0.351816     2.623401     0.427785
   16      C      -0.800718     3.913423     0.959008
   17      C      -2.216611     3.670484     1.479966
   18      C       0.269436    -1.266998     3.444328
   19      C       1.706174    -1.568472     3.017894
   20      O       1.795938    -1.317531     1.577467
   21      C       3.139838    -1.442514     1.022950
   22      C       3.058211    -1.108319    -0.472974
   23      O       4.391776    -1.251185    -1.062854
   24      C      -1.843682     4.016170    -2.925376
   25      O      -3.012341     4.247633    -2.069703
   26      C      -1.605444     2.523112    -3.180872
   27      O      -0.354334     2.418306    -3.928040
   28      C       0.068715     1.044192    -4.212656
   29      C       1.399431     1.125942    -4.962044
   30      H       0.839457    -3.234439    -0.676865
   31      H       0.478017    -4.875408    -1.252179
   32      H       0.072509    -4.253000     1.701714
   33      H      -0.732211    -5.486923     0.680028
   34      H      -2.274357    -3.864120     2.346748
   35      H      -3.140664    -4.646225     0.987116
   36      H      -3.647763    -2.303628     0.097826
   37      H      -3.023650    -1.654395     1.645152
   38      H      -5.884683    -1.416263     0.764914
   39      H      -5.377146    -0.940266     2.413842
   40      H      -7.410987    -3.149273     1.724205
   41      H      -7.807382    -1.544171     2.384012
   42      H      -6.895258    -2.714160     3.369415
   43      H       2.423579    -4.102379     0.721311
   44      H       6.678221     2.367875     0.226241
   45      H       5.616387     3.175139    -0.953978
   46      H       5.543877     1.410640    -0.747194
   47      H       4.702030     3.534487     1.329254
   48      H       4.623692     1.766560     1.598992
   49      H       2.103106     3.673480     1.353921
   50      H       1.997948     1.903447     1.623950
   51      H       1.051379     1.641714    -0.699081
   52      H       1.084258     3.407867    -0.905179
   53      H      -0.804540     4.678997     0.169131
   54      H      -0.142321     4.247109     1.771464
   55      H      -2.862488     3.312245     0.668100
   56      H      -2.648298     4.594477     1.880601
   57      H      -2.199612     2.918189     2.274191
   58      H       0.137403    -1.500803     4.507567
   59      H      -0.430995    -1.867860     2.858820
   60      H       0.036326    -0.210009     3.284681
   61      H       1.961729    -2.617868     3.230230
   62      H       2.411644    -0.915619     3.553944
   63      H       3.529421    -2.465047     1.145035
   64      H       3.821017    -0.743765     1.534204
   65      H       2.667638    -0.093491    -0.604010
   66      H       2.398855    -1.811821    -0.991102
   67      H       5.039731    -0.636386    -0.634537
   68      H      -0.943357     4.455800    -2.478024
   69      H      -2.047115     4.522121    -3.870085
   70      H      -2.930955     3.854004    -1.161788
   71      H      -2.436828     2.108042    -3.767863
   72      H      -1.524536     1.983133    -2.228191
   73      H      -0.690295     0.541177    -4.829729
   74      H       0.185638     0.486441    -3.272847
   75      H       1.274154     1.676413    -5.899926
   76      H       1.764552     0.118476    -5.192256
   77      H       2.149653     1.640460    -4.353595
 ----------------------------------------------------
 Molecular Point Group                 C1    NOp =  1
 Largest Abelian Subgroup              C1    NOp =  1
 Nuclear Repulsion Energy =  3062.3735732182 hartrees
 There are      120 alpha and      120 beta electrons
 Applying Cartesian multipole field
    Component          Value
    ---------          -----
     (2,0,0)        1.00000E-12
     (0,2,0)        2.00000E-11
     (0,0,2)       -3.00000E-11
 Nucleus-field energy     =     0.0000000326 hartrees
 Requested basis set is 3-21++G
 There are 260 shells and 521 basis functions
 A cutoff of  1.0D-11 yielded  23604 shell pairs
 There are     98253 function pairs
 Smallest overlap matrix eigenvalue = 1.05E-05
 Guess MOs from SCF MO coefficient file
Reading MOs from coefficient file
Reading MOs from coefficient file
 A restricted hybrid HF-DFT SCF calculation will be
 performed using Pulay DIIS extrapolation
 Exchange:     0.2000 Hartree-Fock + 0.0800 Slater + 0.7200 Becke88
 Correlation:  0.8100 LYP + 0.1900 VWN1RPA
 Using SG-1 standard quadrature grid
 SCF converges when DIIS error is below 1.0E-08
Geometry optimization detected.  Setting ReadMinima to 0
Setting SaveMinima to 0
 ---------------------------------------
  Cycle       Energy         DIIS Error
 ---------------------------------------
    1   -1459.9770450090      6.79E-03
    2   -1460.1805385629      3.19E-04
    3   -1460.1805601656      4.03E-04
    4   -1460.1854167143      8.42E-05
    5   -1460.1855726658      3.17E-05
    6   -1460.1856004447      6.18E-06
    7   -1460.1856015969      2.64E-06
    8   -1460.1856017741      5.82E-07
    9   -1460.1856017826      1.70E-07
   10   -1460.1856017829      3.72E-08
   11   -1460.1856017836      1.93E-08
   12   -1460.1856017753      4.57E-09 Convergence criterion met
 ---------------------------------------
 SCF time:  CPU 62.82 s  wall 69.07 s
 SCF   energy in the final basis set = -1460.1856017753
 Total energy in the final basis set = -1460.1856017753
 Analysis of SCF Wavefunction
 
 --------------------------------------------------------------
                    Orbital Energies (a.u.)
 --------------------------------------------------------------
 
 Alpha MOs
 -- Occupied --
-19.083 -19.080 -19.076 -19.075 -19.070 -19.069 -19.066 -19.065
-19.062 -10.200 -10.199 -10.198 -10.195 -10.192 -10.189 -10.186
-10.183 -10.183 -10.182 -10.182 -10.180 -10.179 -10.178 -10.176
-10.138 -10.137 -10.132 -10.122 -10.115  -1.051  -1.049  -1.041
 -1.038  -1.032  -1.032  -1.030  -1.026  -1.018  -0.805  -0.796
 -0.792  -0.780  -0.778  -0.759  -0.742  -0.732  -0.726  -0.716
 -0.654  -0.646  -0.634  -0.634  -0.631  -0.630  -0.619  -0.615
 -0.614  -0.611  -0.535  -0.526  -0.525  -0.519  -0.518  -0.512
 -0.510  -0.504  -0.499  -0.498  -0.494  -0.491  -0.485  -0.482
 -0.479  -0.473  -0.472  -0.459  -0.457  -0.454  -0.450  -0.449
 -0.434  -0.429  -0.425  -0.417  -0.411  -0.409  -0.406  -0.403
 -0.401  -0.400  -0.399  -0.392  -0.388  -0.387  -0.385  -0.385
 -0.383  -0.377  -0.373  -0.373  -0.362  -0.359  -0.342  -0.337
 -0.336  -0.332  -0.328  -0.327  -0.322  -0.321  -0.317  -0.291
 -0.286  -0.283  -0.282  -0.282  -0.275  -0.269  -0.264  -0.261
 -- Virtual --
 -0.028  -0.019  -0.014  -0.010  -0.003  -0.002   0.000   0.001
  0.008   0.009   0.010   0.017   0.019   0.020   0.021   0.024
  0.024   0.028   0.028   0.031   0.034   0.036   0.039   0.042
  0.046   0.046   0.049   0.050   0.052   0.055   0.056   0.057
  0.059   0.060   0.062   0.065   0.066   0.071   0.073   0.073
  0.077   0.081   0.083   0.086   0.086   0.090   0.091   0.092
  0.096   0.097   0.098   0.101   0.103   0.105   0.107   0.110
  0.112   0.116   0.116   0.119   0.122   0.122   0.123   0.126
  0.126   0.130   0.130   0.132   0.133   0.134   0.135   0.136
  0.139   0.142   0.143   0.143   0.145   0.146   0.147   0.149
  0.150   0.151   0.151   0.154   0.155   0.156   0.159   0.160
  0.161   0.161   0.164   0.166   0.167   0.168   0.170   0.170
  0.172   0.175   0.178   0.178   0.180   0.180   0.183   0.184
  0.187   0.188   0.190   0.194   0.195   0.196   0.198   0.201
  0.202   0.202   0.205   0.205   0.208   0.209   0.210   0.211
  0.212   0.213   0.216   0.217   0.221   0.222   0.224   0.225
  0.227   0.230   0.232   0.234   0.236   0.237   0.238   0.241
  0.245   0.247   0.248   0.250   0.253   0.255   0.255   0.257
  0.258   0.260   0.264   0.266   0.270   0.271   0.274   0.275
  0.278   0.280   0.281   0.283   0.285   0.286   0.289   0.291
  0.293   0.297   0.298   0.306   0.309   0.309   0.314   0.315
  0.317   0.321   0.325   0.326   0.328   0.330   0.333   0.334
  0.339   0.343   0.346   0.347   0.354   0.356   0.360   0.366
  0.369   0.371   0.374   0.379   0.381   0.383   0.384   0.387
  0.391   0.393   0.394   0.397   0.402   0.403   0.406   0.408
  0.409   0.413   0.413   0.418   0.419   0.421   0.423   0.429
  0.431   0.435   0.436   0.440   0.442   0.448   0.451   0.452
  0.459   0.464   0.470   0.473   0.476   0.482   0.486   0.495
  0.498   0.499   0.503   0.509   0.511   0.518   0.522   0.534
  0.542   0.558   0.573   0.596   0.621   0.833   0.839   0.843
  0.847   0.852   0.858   0.859   0.866   0.870   0.876   0.881
  0.886   0.889   0.891   0.900   0.901   0.905   0.907   0.911
[...]
    1  -1.7077761  -4.1798830   3.4119954  -3.9494125   2.6069466  -5.6146211
    2  -1.6447578  -2.8013191   1.0830275   4.9574239  -6.2482172  -2.3688459
    3  -1.9796455   3.8064898   4.5910245   0.2092903   2.0924021  -2.9543236
           49          50          51          52          53          54
    1  -0.3716408  -3.9976743  16.0735235   2.4669668   4.2907027  -3.6950929
    2  -6.3564200  -0.1077144 -16.7777337  -2.6544205  -2.2517330  -6.0088951
    3   2.0148011  -6.5077685   1.0287864   1.9625872   5.9603661  -1.2246341
           55          56          57          58          59          60
    1   5.3370589   2.5575679  -2.2927909   1.6756328   2.2887001   5.7801972
    2   3.1810671  -5.9507553   0.0888529  -1.3861098   5.5119832  -5.3694685
    3  -1.0488282  -0.8059170  -5.9089021  -6.8041966  -1.0656615   4.1959898
           61          62          63          64          65          66
    1  -2.5914222  -3.4734644  -5.6907442  -1.7789599  -0.4642387  -0.8360672
    2   3.4871858  -6.2991193   4.4267828  -6.9368349  -4.0083281   7.9857394
    3  -3.9266956  -2.2436917  -3.1440494  -2.9490021   6.6638939   0.4689161
           67          68          69          70          71          72
    1  -0.6445919  -2.4127772   5.6757297  -2.6804864  -1.8635911  -9.2584897
    2  -4.0779915  -6.0233564  -1.6575600   0.4709958   2.0286038   4.5883962
    3   1.8178126  -0.7190975   6.3228901  -6.2496667   5.8142982 -10.5460655
           73          74          75          76          77
    1   1.9368141  -6.3492332   3.9221497  -3.7098673  -4.1644533
    2   5.5486008   6.8685669  -2.1920402   2.9948115  -5.8651722
    3   4.0350683 -10.9688089   4.6156903   4.0691524  -0.5241468
 Gradient of SCF Energy
            1           2           3           4           5           6
    1  -0.0014023  -0.0000121  -0.0002718  -0.0000491   0.0002663  -0.0003212
    2  -0.0005340  -0.0000511  -0.0006021   0.0004528   0.0000415  -0.0001677
    3   0.0004341  -0.0001698   0.0002638   0.0003588   0.0004530  -0.0005058
            7           8           9          10          11          12
    1   0.0000933  -0.0001014   0.0011384  -0.0009566  -0.0001571   0.0006080
    2   0.0002205  -0.0001383  -0.0008061  -0.0003990  -0.0007977  -0.0008722
    3   0.0003310  -0.0002485  -0.0002562  -0.0002339   0.0008383   0.0005908
           13          14          15          16          17          18
    1   0.0002439   0.0003234  -0.0002664  -0.0000831   0.0000199  -0.0001001
    2   0.0008531  -0.0012004   0.0002594   0.0001432   0.0007815  -0.0001009
    3  -0.0008307   0.0004962  -0.0002528  -0.0002697   0.0005909  -0.0006840
           19          20          21          22          23          24
    1   0.0001252  -0.0001312   0.0006298  -0.0029192  -0.0035515  -0.0000413
    2   0.0010458  -0.0010856  -0.0014472   0.0013164   0.0000668  -0.0003662
    3   0.0001186  -0.0005443   0.0008699  -0.0004754   0.0016590   0.0004465
           25          26          27          28          29          30
    1   0.0003191   0.0003520  -0.0001642  -0.0006361   0.0001203   0.0012702
    2   0.0003952   0.0001292   0.0000755  -0.0000473   0.0001238   0.0005434
    3  -0.0001245  -0.0001197  -0.0002530  -0.0000167   0.0000142  -0.0001894
           31          32          33          34          35          36
    1  -0.0000874  -0.0001201   0.0000391  -0.0001799   0.0002037  -0.0000339
    2  -0.0000116  -0.0000907  -0.0000693   0.0000141  -0.0000870  -0.0001244
    3   0.0001220  -0.0002783   0.0000408  -0.0002261  -0.0001803   0.0000523
           37          38          39          40          41          42
    1   0.0000907  -0.0000029   0.0000087  -0.0000016   0.0000033   0.0000163
    2  -0.0004313  -0.0000632  -0.0000976   0.0000289   0.0000465  -0.0000036
    3  -0.0000578   0.0000177  -0.0001059   0.0000667   0.0000631   0.0000190
           43          44          45          46          47          48
    1   0.0000490   0.0002058   0.0002196  -0.0014356  -0.0000995   0.0002312
    2   0.0015040  -0.0000524   0.0000535   0.0008415  -0.0000654   0.0005056
    3  -0.0002812  -0.0001319   0.0000355   0.0015271   0.0000641  -0.0002065
           49          50          51          52          53          54
    1  -0.0001231   0.0000585  -0.0006104  -0.0000270  -0.0000971  -0.0001753
    2   0.0001448   0.0002349   0.0003906   0.0002084  -0.0002373   0.0001008
    3  -0.0001102   0.0000877  -0.0001487   0.0004189  -0.0000296   0.0002344
           55          56          57          58          59          60
    1   0.0003283  -0.0001331  -0.0000138   0.0001197  -0.0000082   0.0001225
    2  -0.0002333   0.0000368  -0.0001091  -0.0001763   0.0001632  -0.0001103
    3  -0.0002412  -0.0000273   0.0000090   0.0000788   0.0002297  -0.0000117
           61          62          63          64          65          66
    1   0.0000095  -0.0000414   0.0004643  -0.0005792   0.0001053   0.0022180
    2  -0.0001629  -0.0002150  -0.0002453  -0.0001231   0.0007507  -0.0006547
    3  -0.0002135   0.0000234  -0.0012295   0.0003574  -0.0005612   0.0020248
           67          68          69          70          71          72
    1   0.0049356   0.0001761  -0.0002400   0.0001089  -0.0000898   0.0000321
    2  -0.0005246  -0.0000917  -0.0000108   0.0003764   0.0006043   0.0003234
    3  -0.0027896  -0.0000122   0.0000252  -0.0006900   0.0000721   0.0000592
           73          74          75          76          77
    1   0.0001716  -0.0000097  -0.0000296  -0.0000956  -0.0000288
    2  -0.0000441  -0.0000413   0.0000336  -0.0000231  -0.0000949
    3  -0.0001560  -0.0002095   0.0001072  -0.0000421  -0.0000866
 Max gradient component =       4.936E-03
 RMS gradient           =       6.794E-04
 Gradient time:  CPU 22.01 s  wall 22.58 s
 Geometry Optimization Parameters
   NAtoms,    NIC,     NZ,  NCons,   NDum,   NFix, NCnnct, MaxDiis
       77     525       0       0       0       0       0       0

 Cartesian Hessian Update
 Hessian Updated using BFGS Update


** GEOMETRY OPTIMIZATION IN DELOCALIZED INTERNAL COORDINATES **
   Searching for a Minimum

   Optimization Cycle:  68

                       Coordinates (Angstroms)
     ATOM              X           Y           Z
      1  C         0.231180   -2.871585    0.212728
      2  C        -1.102311   -3.058691    0.933556
      3  O        -2.136092   -2.465976    0.067770
      4  C        -3.508043   -2.739370    0.528763
      5  C        -4.434033   -2.021370   -0.441986
      6  O        -5.798427   -2.386703   -0.025795
      7  C        -6.845707   -1.691076   -0.793792
      8  C        -8.187283   -2.172129   -0.250212
      9  O         1.327735   -3.374203    1.052441
     10  C         5.050055    2.076405   -2.695498
     11  C         4.614157    2.831829   -1.444771
     12  O         3.751210    1.907992   -0.664659
     13  C         2.962794    2.560119    0.404070
     14  C         1.620879    1.822318    0.478465
     15  O         0.832970    2.253120    1.653291
     16  C         0.271358    3.620762    1.550192
     17  C        -0.670407    3.800116    2.737398
     18  C         0.857927   -0.800212    3.860748
     19  C         2.355421   -0.791506    3.573323
     20  O         2.542321   -1.253578    2.175647
     21  C         3.892519   -1.006380    1.628905
     22  C         3.844747   -1.359156    0.137347
     23  O         4.994201   -0.755594   -0.551807
     24  C        -2.465690    1.752651   -0.823700
     25  O        -3.317266    1.318232    0.306407
     26  C        -1.413588    0.695815   -1.153036
     27  O        -0.574683    1.296019   -2.204235
     28  C         0.307158    0.332940   -2.897992
     29  C         0.966296    1.091151   -4.044414
     30  H         0.384411   -1.810659   -0.026604
     31  H         0.234026   -3.445712   -0.717613
     32  H        -1.096802   -2.548807    1.906559
     33  H        -1.299280   -4.127823    1.091712
     34  H        -3.654957   -2.355365    1.547055
     35  H        -3.698110   -3.820732    0.518108
     36  H        -4.247502   -2.363084   -1.469639
     37  H        -4.288726   -0.937215   -0.375085
     38  H        -6.737297   -1.936511   -1.861839
     39  H        -6.725755   -0.604861   -0.668744
     40  H        -8.280508   -3.255400   -0.376164
     41  H        -9.012221   -1.681443   -0.781395
     42  H        -8.267058   -1.938739    0.816213
     43  H         1.754251   -2.602838    1.550460
     44  H         5.772451    2.671076   -3.267841
     45  H         4.189445    1.856116   -3.333515
     46  H         5.524826    1.131812   -2.417446
     47  H         4.028447    3.725442   -1.699520
     48  H         5.475741    3.132429   -0.831428
     49  H         2.816525    3.616410    0.145032
     50  H         3.499487    2.498752    1.359135
     51  H         1.779057    0.755489    0.634303
     52  H         1.047121    1.980738   -0.442611
     53  H        -0.261993    3.719671    0.594042
     54  H         1.080773    4.363130    1.584656
     55  H        -1.487903    3.073455    2.689571
     56  H        -1.100273    4.809196    2.734308
     57  H        -0.128230    3.649242    3.676205
     58  H         0.678439   -0.518501    4.905981
     59  H         0.442949   -1.800324    3.699349
     60  H         0.352971   -0.079853    3.210099
     61  H         2.907417   -1.465967    4.241642
     62  H         2.765841    0.223077    3.657607
     63  H         4.641490   -1.616197    2.148645
     64  H         4.132200    0.055891    1.764855
     65  H         2.905143   -1.008880   -0.303020
     66  H         3.945141   -2.437012    0.001518
     67  H         4.801388    0.212148   -0.699311
     68  H        -1.981597    2.711009   -0.602521
     69  H        -3.154607    1.891525   -1.657613
     70  H        -2.754838    1.183876    1.114016
     71  H        -1.881496   -0.231710   -1.498169
     72  H        -0.805215    0.465841   -0.266775
     73  H        -0.295629   -0.508951   -3.266468
     74  H         1.056490   -0.052540   -2.192168
     75  H         0.205670    1.464395   -4.737691
     76  H         1.652184    0.432952   -4.592190
     77  H         1.532404    1.944169   -3.656374
   Point Group: c1    Number of degrees of freedom:   225


   Energy is  -1460.224695648

 GETINT wrote B to file, NVib is          225
 Hessian Updated using BFGS Update

225 Hessian modes will be used to form the next step
  Hessian Eigenvalues:
     0.000425    0.002187    0.003895    0.003923    0.004375    0.004469
     0.004566    0.004790    0.005152    0.005491    0.006115    0.007510
     0.007762    0.008947    0.009385    0.009539    0.009964    0.010838
     0.011424    0.011632    0.012885    0.013765    0.015342    0.015878
     0.018955    0.019420    0.021325    0.025678    0.027277    0.032956
     0.036802    0.038754    0.041826    0.044482    0.046814    0.047867
     0.050168    0.051434    0.052007    0.052847    0.052894    0.053457
     0.053988    0.054437    0.054628    0.055022    0.055793    0.055949
     0.056574    0.056663    0.056886    0.057060    0.057235    0.057289
     0.057590    0.058172    0.058244    0.058387    0.058518    0.058777
     0.058918    0.059058    0.059290    0.059504    0.059932    0.060152
     0.061077    0.062947    0.064286    0.066668    0.068475    0.070189
     0.075858    0.083621    0.084450    0.086999    0.092536    0.095040
     0.101740    0.103880    0.108886    0.109739    0.110195    0.110664
     0.110967    0.111289    0.111472    0.111518    0.111780    0.112203
     0.112772    0.113253    0.115277    0.116122    0.118660    0.121106
     0.131915    0.134679    0.135283    0.136067    0.136113    0.136486
     0.136738    0.137352    0.137804    0.138535    0.140803    0.145425
     0.150420    0.154596    0.156873    0.159812    0.159943    0.160040
     0.160095    0.160306    0.160473    0.160742    0.161266    0.162747
     0.168829    0.172056    0.182491    0.190223    0.201225    0.205371
     0.207814    0.211022    0.219996    0.220414    0.222581    0.222855
     0.225658    0.229630    0.232604    0.233836    0.243969    0.246324
     0.249739    0.252419    0.262463    0.272011    0.278321    0.283899
     0.285462    0.288582    0.288917    0.289982    0.291909    0.292397
     0.295300    0.300077    0.304688    0.326187    0.330651    0.340241
     0.341354    0.342986    0.343099    0.343485    0.343700    0.343783
     0.343856    0.343877    0.343931    0.344022    0.344047    0.344061
     0.344238    0.344312    0.344369    0.344489    0.344520    0.344628
     0.344721    0.344797    0.344940    0.344997    0.345058    0.345229
     0.345403    0.345486    0.345515    0.345586    0.345654    0.345722
     0.345758    0.345892    0.345967    0.346087    0.346579    0.346748
     0.347258    0.347695    0.349428    0.351986    0.354189    0.356676
     0.358797    0.367213    0.375004    0.384265    0.387025    0.388507
     0.388918    0.390285    0.391307    0.391862    0.393941    0.400709
     0.404153    0.408654    0.415219    0.428089    0.475118    0.514437
     0.524324    0.549968    0.576917    1.075598    1.784903    2.360261
     3.744906   10.278674   23.839726

 Minimum Search - Taking Simple RFO Step
 Searching for Lamda that Minimizes Along All modes
 Value Taken    Lamda =  -0.00201478
 Calculated Step too Large.  Step scaled by  0.496777
 Step Taken.  Stepsize is  0.300000

                             Maximum     Tolerance    Cnvgd?
         Gradient           0.025895      0.000300      NO
         Displacement       0.170366      0.001200      NO
         Energy change     -0.000048      0.000001      NO


 New Cartesian Coordinates Obtained by Inverse Iteration

 Displacement from previous Coordinates is:  2.587894
 ----------------------------------------------------
       Standard Nuclear Orientation (Angstroms)
    I     Atom         X            Y            Z
 ----------------------------------------------------
    1      C       0.240008    -2.866625     0.254308
    2      C      -1.084978    -3.052480     0.992811
    3      O      -2.127037    -2.456854     0.140590
    4      C      -3.492726    -2.716169     0.626559
    5      C      -4.425386    -1.972096    -0.317403
    6      O      -5.787652    -2.328953     0.112559
    7      C      -6.838339    -1.613141    -0.632458
    8      C      -8.177737    -2.090281    -0.079364
    9      O       1.348997    -3.361128     1.083368
   10      C       5.180210     2.190076    -2.624634
   11      C       4.674990     2.835931    -1.339510
   12      O       3.743460     1.866682    -0.708226
   13      C       2.928826     2.437835     0.386530
   14      C       1.580634     1.707508     0.372105
   15      O       0.761104     2.064345     1.550583
   16      C       0.217919     3.442986     1.521613
   17      C      -0.746102     3.572036     2.696630
   18      C       0.813505    -0.754051     3.830723
   19      C       2.313535    -0.747970     3.559008
   20      O       2.515787    -1.205609     2.162303
   21      C       3.875084    -0.952033     1.642229
   22      C       3.854774    -1.287627     0.147327
   23      O       5.027157    -0.684138    -0.504563
   24      C      -2.507374     1.711175    -1.001257
   25      O      -3.380120     1.240785     0.098773
   26      C      -1.449274     0.663410    -1.342013
   27      O      -0.574012     1.302305    -2.341478
   28      C       0.330916     0.366154    -3.042810
   29      C       1.047202     1.171675    -4.120865
   30      H       0.383381    -1.805594     0.004218
   31      H       0.234740    -3.446456    -0.672380
   32      H      -1.065088    -2.543239     1.966294
   33      H      -1.286854    -4.120373     1.153685
   34      H      -3.612404    -2.340474     1.651613
   35      H      -3.699250    -3.794516     0.609542
   36      H      -4.259839    -2.299667    -1.353254
   37      H      -4.266617    -0.890881    -0.234828
   38      H      -6.744937    -1.843199    -1.705252
   39      H      -6.706605    -0.530057    -0.493626
   40      H      -8.281373    -3.171127    -0.218171
   41      H      -9.004594    -1.586704    -0.595410
   42      H      -8.244067    -1.870106     0.990818
   43      H       1.781275    -2.585499     1.566413
   44      H       5.956511     2.811863    -3.086847
   45      H       4.363416     2.052098    -3.339358
   46      H       5.604090     1.210899    -2.393838
   47      H       4.130343     3.768183    -1.542435
   48      H       5.499855     3.048246    -0.643674
   49      H       2.797059     3.512515     0.207676
   50      H       3.439022     2.298491     1.348419
   51      H       1.726908     0.632417     0.465969
   52      H       1.033312     1.923512    -0.553396
   53      H      -0.294536     3.607961     0.563148
   54      H       1.036486     4.170298     1.614719
   55      H      -1.581269     2.871811     2.591840
   56      H      -1.154076     4.589465     2.738380
   57      H      -0.230315     3.360860     3.638992
   58      H       0.624424    -0.469329     4.873333
   59      H       0.396924    -1.753025     3.665847
   60      H       0.319338    -0.030712     3.175044
   61      H       2.858271    -1.422742     4.233252
   62      H       2.722920     0.266607     3.647714
   63      H       4.619474    -1.564159     2.164472
   64      H       4.109440     0.109913     1.791310
   65      H       2.930140    -0.919114    -0.311076
   66      H       3.941261    -2.364208    -0.012682
   67      H       4.834526     0.282495    -0.662564
   68      H      -2.030160     2.662664    -0.739095
   69      H      -3.179994     1.876892    -1.843560
   70      H      -2.834839     1.083393     0.915055
   71      H      -1.908719    -0.250835    -1.731610
   72      H      -0.867624     0.402198    -0.446432
   73      H      -0.260770    -0.452424    -3.475869
   74      H       1.046301    -0.058964    -2.324443
   75      H       0.322682     1.577345    -4.834505
   76      H       1.759640     0.536048    -4.661453
   77      H       1.594509     2.004142    -3.666954
 ----------------------------------------------------
 Molecular Point Group                 C1    NOp =  1
 Largest Abelian Subgroup              C1    NOp =  1
 Nuclear Repulsion Energy =  3239.6691939213 hartrees
 There are      120 alpha and      120 beta electrons
 Applying Cartesian multipole field
    Component          Value
    ---------          -----
     (2,0,0)        1.00000E-12
     (0,2,0)        2.00000E-11
     (0,0,2)       -3.00000E-11
 Nucleus-field energy     =    -0.0000000025 hartrees
 Requested basis set is 3-21++G
 There are 260 shells and 521 basis functions
 A cutoff of  1.0D-11 yielded  24611 shell pairs
 There are    102851 function pairs
 Smallest overlap matrix eigenvalue = 4.18E-06
 Guess MOs from SCF MO coefficient file
Reading MOs from coefficient file
Reading MOs from coefficient file
 A restricted hybrid HF-DFT SCF calculation will be
 performed using Pulay DIIS extrapolation
 Exchange:     0.2000 Hartree-Fock + 0.0800 Slater + 0.7200 Becke88
 Correlation:  0.8100 LYP + 0.1900 VWN1RPA
 Using SG-1 standard quadrature grid
 SCF converges when DIIS error is below 1.0E-08
Geometry optimization detected.  Setting ReadMinima to 0
Setting SaveMinima to 0
 ---------------------------------------
  Cycle       Energy         DIIS Error
 ---------------------------------------
    1   -1460.1991107590      6.07E-03
    2   -1460.2176142366      4.08E-04
    3   -1460.2127278837      6.35E-04
    4   -1460.2241206990      8.75E-05
    5   -1460.2243399944      2.77E-05
    6   -1460.2243614237      6.11E-06
Application 14303573 exit codes: 143
Application 14303573 resources: utime ~6227s, stime ~455s, Rss ~165464, inblocks ~279288072, outblocks ~108306989
