
Running Job 1 of 1 PEOmono_geo_1B1.in
qchem PEOmono_geo_1B1.in_12710.0 /usr/local/bin/qscratch/qchem12710/ 1
                  Welcome to Q-Chem
     A Quantum Leap Into The Future Of Chemistry


 Q-Chem 4.2, Q-Chem, Inc., Pleasanton, CA (2014).

 Y. Shao,  Z. Gan,  E. Epifanovsky,  A. T. B. Gilbert,  M. Wormit,  
 J. Kussmann,  A. W. Lange,  A. Behn,  J. Deng,  X. Feng,  D. Ghosh,  
 M. Goldey,  P. R. Horn,  L. D. Jacobson,  I. Kaliman,  R. Z. Khaliullin,  
 T. Kus,  A. Landau,  J. Liu,  E. I. Proynov,  Y. M. Rhee,  R. M. Richard,  
 M. A. Rohrdanz,  R. P. Steele,  E. J. Sundstrom,  H. L. Woodcock III,  
 P. M. Zimmerman,  D. Zuev,  B. Albrecht,  E. Alguire,  B. Austin,  
 G. J. O. Beran,  Y. A. Bernard,  E. Berquist,  K. Brandhorst,  
 K. B. Bravaya,  S. T. Brown,  D. Casanova,  C.-M. Chang,  Y. Chen,  
 S. H. Chien,  K. D. Closser,  D. L. Crittenden,  M. Diedenhofen,  
 R. A. DiStasio Jr.,  H. Do,  A. D. Dutoi,  R. G. Edgar,  S. Fatehi,  
 L. Fusti-Molnar,  A. Ghysels,  A. Golubeva-Zadorozhnaya,  J. Gomes,  
 M. W. D. Hanson-Heine,  P. H. P. Harbach,  A. W. Hauser,  E. G. Hohenstein,  
 Z. C. Holden,  T.-C. Jagau,  H. Ji,  B. Kaduk,  K. Khistyaev,  Jaehoon Kim,  
 Jihan Kim,  R. A. King,  P. Klunzinger,  D. Kosenkov,  T. Kowalczyk,  
 C. M. Krauter,  K. U. Lao,  A. Laurent,  K. V. Lawler,  S. V. Levchenko,  
 C. Y. Lin,  F. Liu,  E. Livshits,  R. C. Lochan,  A. Luenser,  P. Manohar,  
 S. F. Manzer,  S.-P. Mao,  N. Mardirossian,  A. V. Marenich,  S. A. Maurer,  
 N. J. Mayhall,  C. M. Oana,  R. Olivares-Amaya,  D. P. O'Neill,  
 J. A. Parkhill,  T. M. Perrine,  R. Peverati,  P. A. Pieniazek,  A. Prociuk,  
 D. R. Rehn,  E. Rosta,  N. J. Russ,  N. Sergueev,  S. M. Sharada,  
 S. Sharma,  D. W. Small,  A. Sodt,  T. Stein,  D. Stuck,  Y.-C. Su,  
 A. J. W. Thom,  T. Tsuchimochi,  L. Vogt,  O. Vydrov,  T. Wang,  
 M. A. Watson,  J. Wenzel,  A. White,  C. F. Williams,  V. Vanovschi,  
 S. Yeganeh,  S. R. Yost,  Z.-Q. You,  I. Y. Zhang,  X. Zhang,  Y. Zhao,  
 B. R. Brooks,  G. K. L. Chan,  D. M. Chipman,  C. J. Cramer,  
 W. A. Goddard III,  M. S. Gordon,  W. J. Hehre,  A. Klamt,  
 H. F. Schaefer III,  M. W. Schmidt,  C. D. Sherrill,  D. G. Truhlar,  
 A. Warshel,  X. Xu,  A. Aspuru-Guzik,  R. Baer,  A. T. Bell,  N. A. Besley,  
 J.-D. Chai,  A. Dreuw,  B. D. Dunietz,  T. R. Furlani,  S. R. Gwaltney,  
 C.-P. Hsu,  Y. Jung,  J. Kong,  D. S. Lambrecht,  W. Liang,  C. Ochsenfeld,  
 V. A. Rassolov,  L. V. Slipchenko,  J. E. Subotnik,  T. Van Voorhis,  
 J. M. Herbert,  A. I. Krylov,  P. M. W. Gill,  M. Head-Gordon

 Contributors to earlier versions of Q-Chem not listed above: 
 R. D. Adamson,  J. Baker,  E. F. C. Byrd,  A. K. Chakraborty,  C.-L. Cheng,  
 H. Dachsel,  R. J. Doerksen,  G. Hawkins,  A. Heyden,  S. Hirata,  
 G. Kedziora,  F. J. Keil,  C. Kelley,  P. P. Korambath,  W. Kurlancheek,  
 A. M. Lee,  M. S. Lee,  D. Liotard,  I. Lotan,  P. E. Maslen,  N. Nair,  
 D. Neuhauser,  R. Olson,  B. Peters,  J. Ritchie,  N. E. Schultz,  
 N. Shenvi,  A. C. Simmonett,  K. S. Thanthiriwatte,  Q. Wu,  W. Zhang

 Q-Chem 4.2.0.0  for Mac (Intel) OS X

 Parts of Q-Chem use Armadillo 4.100.2 (Dirt Cruiser).
 http://arma.sourceforge.net/

 Q-Chem begins on Fri Jul 24 11:08:45 2015  

Host: 
0

     Scratch files written to /usr/local/bin/qscratch/qchem12710//
 Dec114 28887_epif 4730   
Processing $rem in /usr/local/bin/qchem4/config/preferences.
 MEM_TOTAL  6000 
Checking the input file for consistency...	...done.

--------------------------------------------------------------
User input:
--------------------------------------------------------------
$molecule
0 1
C   -3.1880572    3.2615189   -0.0062444
C   -1.9725305    2.3447196   -0.0611493
O   -0.7910744    3.0928131    0.0205607
H   -4.1170000    2.6552004   -0.0513119
H   -3.1748807    3.9638101   -0.8664995
H   -3.1824517    3.8435646    0.9396708
H   -1.9852557    1.7350135   -0.9932878
H   -2.0058182    1.6391908    0.7958726
H   -0.6369250    3.4810482   -0.8804685
$end

$rem
BASIS  =  6-31++G
JOB_TYPE  =  Optimization
METHOD  =  B3LYP
$end
--------------------------------------------------------------
 ----------------------------------------------------------------
             Standard Nuclear Orientation (Angstroms)
    I     Atom           X                Y                Z
 ----------------------------------------------------------------
    1      C       1.1997864975    -0.2459547994     0.0112844505
    2      C      -0.0923807997     0.5595659567    -0.0385216771
    3      O      -1.1999924648    -0.2808564351     0.1319058083
    4      H       2.0698176718     0.4339166308    -0.1045107253
    5      H       1.2151645212    -0.9928864524    -0.8104709931
    6      H       1.2811660483    -0.7736618995     0.9851770366
    7      H      -0.1685630717     1.1161525227    -1.0003913660
    8      H      -0.0881454671     1.3112547770     0.7789815186
    9      H      -1.3539341709    -0.7295910415    -0.7406085777
 ----------------------------------------------------------------
 Molecular Point Group                 C1    NOp =  1
 Largest Abelian Subgroup              C1    NOp =  1
 Nuclear Repulsion Energy =    81.7210765138 hartrees
 There are       13 alpha and       13 beta electrons
 Requested basis set is 6-31++G
 There are 30 shells and 57 basis functions

Total QAlloc Memory Limit   6000 MB
Mega-Array Size        61 MB
MEM_STATIC part        62 MB
 A cutoff of  1.0D-11 yielded    464 shell pairs
 There are      1706 function pairs
 
 -------------------------------------------------------
 OpenMP Integral Computing Module                       
 Release: version 1.0, May 2013, Q-Chem Inc. Pittsburgh 
 -------------------------------------------------------
 Integral Job Info:
 Integral job number is                      11
 Integral operator is                         1
 short-range coefficients               -999999
 long-range coefficients                -999999
 Omega coefficients                           0
 if combine SR and LR in K              -999999
 Integral screening is                        0
 Integral computing path is                   2
 max size of driver memory is            800000
 size of driver memory is                 45569
 size of scratch memory is              1939132
 max col of scratch BK array                289
 max len of scratch array in speh3           22
 max len of scratch index in speh4            8
 max int batch size is                      520
 min int batch size is                       52
 fixed nKL is                                52
 max L of basis functions is                  1
 order of int derivative is                   0
 number of shells is                         30
 number of basis is                          57
 number of cartesian basis is                57
 number of contracted shell pairs           464
 number of primitive shell pairs           1658
 maxK2 (contraction) of shell pair           36
 max number of K2 of shell pair               1
 max number of CS2 of shell pair             79
 max number of PS2 of shell pair            300
 mem total for path MDJ                    9882
 -------------------------------------------------------
         cpu   0.00 wall   0.00
 Smallest overlap matrix eigenvalue = 2.51E-04

  Scale SEOQF with 1.000000e-01/1.000000e-01/1.000000e-01

 Standard Electronic Orientation quadrupole field applied
 Nucleus-field energy     =     0.0000000012 hartrees
 Guess from superposition of atomic densities
 Warning:  Energy on first SCF cycle will be non-variational
 A restricted hybrid HF-DFT SCF calculation will be
 performed using Pulay DIIS extrapolation
 Exchange:     0.2000 Hartree-Fock + 0.0800 Slater + 0.7200 Becke88
 Correlation:  0.8100 LYP + 0.1900 VWN1RPA
 Using SG-1 standard quadrature grid
 SCF converges when DIIS error is below 1.0E-08
 ---------------------------------------
  Cycle       Energy         DIIS Error
 ---------------------------------------
    1    -155.3181435108      9.82E-02
    2    -154.9139447092      1.45E-02
    3    -154.8429748890      2.09E-02
    4    -154.9948792810      2.51E-03
    5    -154.9970062103      6.20E-04
    6    -154.9971535104      4.32E-05
    7    -154.9971544188      1.84E-05
    8    -154.9971545521      4.59E-06
    9    -154.9971545621      3.06E-07
   10    -154.9971545622      4.37E-08
   11    -154.9971545622      1.08E-08
   12    -154.9971545622      1.34E-09 Convergence criterion met
 ---------------------------------------
 SCF time:  CPU 1.94 s  wall 1.98 s
 SCF   energy in the final basis set = -154.9971545622
 Total energy in the final basis set = -154.9971545622
 Analysis of SCF Wavefunction
 
 --------------------------------------------------------------
 
                    Orbital Energies (a.u.)
 --------------------------------------------------------------
 
 Alpha MOs
 -- Occupied --
-19.157 -10.239 -10.183  -1.046  -0.755  -0.629  -0.521  -0.465
 -0.431  -0.391  -0.377  -0.326  -0.278
 -- Virtual --
 -0.018   0.007   0.015   0.026   0.047   0.055   0.075   0.077
  0.100   0.113   0.126   0.134   0.144   0.147   0.187   0.192
  0.210   0.223   0.235   0.254   0.260   0.283   0.303   0.352
  0.364   0.397   0.664   0.688   0.740   0.758   0.767   0.783
  0.977   1.015   1.026   1.061   1.107   1.133   1.191   1.266
  1.314   1.418   1.511   1.891
 --------------------------------------------------------------
 
          Ground-State Mulliken Net Atomic Charges

     Atom                 Charge (a.u.)
  ----------------------------------------
      1 C                    -0.569141
      2 C                    -0.376954
      3 O                    -0.496367
      4 H                     0.179040
      5 H                     0.191529
      6 H                     0.236943
      7 H                     0.199500
      8 H                     0.229047
      9 H                     0.406403
  ----------------------------------------
  Sum of atomic charges =     0.000000

 -----------------------------------------------------------------
                    Cartesian Multipole Moments
 -----------------------------------------------------------------
    Charge (ESU x 10^10)
                 0.0000
    Dipole Moment (Debye)
         X       1.1973      Y       0.2724      Z      -1.7728
       Tot       2.1565
    Quadrupole Moments (Debye-Ang)
        XX     -22.9535     XY       0.6657     YY     -19.8566
        XZ       3.0126     YZ       1.6161     ZZ     -19.3364
    Octopole Moments (Debye-Ang^2)
       XXX      -1.8826    XXY      -1.0368    XYY      -2.4060
       YYY      -0.8557    XXZ      -4.0141    XYZ      -2.0714
       YYZ      -0.8342    XZZ      -2.7232    YZZ      -0.8515
       ZZZ      -0.7440
    Hexadecapole Moments (Debye-Ang^3)
      XXXX    -168.4705   XXXY       7.0290   XXYY     -35.4784
      XYYY       3.1848   YYYY     -61.2848   XXXZ       6.6667
      XXYZ       2.5399   XYYZ       1.6377   YYYZ       2.4720
      XXZZ     -32.3933   XYZZ       0.5731   YYZZ     -14.9680
      XZZZ       2.9175   YZZZ       1.4185   ZZZZ     -37.4020
 -----------------------------------------------------------------
 Calculating analytic gradient of the SCF energy
         cpu   0.00 wall   0.01
 Gradient of Coulomb and Exchange Energy
            1           2           3           4           5           6
    1  -2.7919444  -1.5133819   6.8704654  -2.4603078  -0.5080904  -0.5818085
    2   0.8017632  -2.4280202   2.2724880  -1.5980578   2.0253994   1.4685070
    3   0.3037106   0.5398500  -3.6461348   0.2606154   2.1406059  -2.5927704
            7           8           9
    1   0.1714134  -0.1127791   0.9264333
    2  -1.5643380  -2.4487355   1.4709939
    3   2.5772013  -2.3657774   2.7826993
 Gradient of SCF Energy
            1           2           3           4           5           6
    1  -0.0104133  -0.0330131   0.0343347   0.0038863  -0.0027715   0.0001491
    2  -0.0002362  -0.0324687   0.0234215   0.0073873  -0.0043387  -0.0036841
    3   0.0004294  -0.0002479   0.0133285  -0.0005706  -0.0068986   0.0096341
            7           8           9
    1  -0.0019869   0.0043110   0.0055037
    2   0.0016902   0.0075413   0.0006874
    3  -0.0070559   0.0067567  -0.0153757
 Max gradient component =       3.433E-02
 RMS gradient           =       1.341E-02
 Gradient time:  CPU 0.51 s  wall 0.55 s
 Geometry Optimization Parameters
   NAtoms,    NIC,     NZ,  NCons,   NDum,   NFix, NCnnct, MaxDiis
        9      51       0       0       0       0       0       0


** GEOMETRY OPTIMIZATION IN DELOCALIZED INTERNAL COORDINATES **
   Searching for a Minimum

   Optimization Cycle:   1

                       Coordinates (Angstroms)
     ATOM                X               Y               Z
      1  C         1.1997864975   -0.2459547994    0.0112844505
      2  C        -0.0923807997    0.5595659567   -0.0385216771
      3  O        -1.1999924648   -0.2808564351    0.1319058083
      4  H         2.0698176718    0.4339166308   -0.1045107253
      5  H         1.2151645212   -0.9928864524   -0.8104709931
      6  H         1.2811660483   -0.7736618995    0.9851770366
      7  H        -0.1685630717    1.1161525227   -1.0003913660
      8  H        -0.0881454671    1.3112547770    0.7789815186
      9  H        -1.3539341709   -0.7295910415   -0.7406085777
   Point Group: c1    Number of degrees of freedom:    21


   Energy is   -154.997154562


 Attempting to Generate Delocalized Internal Coordinates
 GETINT wrote B to file, NVib is           21
 calling HSSCONV
 HCONV 3*NATOMS:           27
 wrote HINT to file
  writing hessian 

 21 Hessian modes will be used to form the next step
  Hessian Eigenvalues:
     0.006071    0.015543    0.051644    0.058551    0.059006    0.060138
     0.114789    0.138573    0.160000    0.160000    0.160000    0.160000
     0.220009    0.300323    0.321900    0.325303    0.325369    0.325398
     0.325768    0.454930    0.489137

 Minimum Search - Taking Simple RFO Step
 Searching for Lamda that Minimizes Along All modes
 Value Taken    Lamda =  -0.01027321
 Step Taken.  Stepsize is  0.208355

                             Maximum     Tolerance    Cnvgd?
         Gradient           0.031982      0.000300      NO
         Displacement       0.146447      0.001200      NO
         Energy change     *********      0.000001      NO


 New Cartesian Coordinates Obtained by Inverse Iteration

 Displacement from previous Coordinates is:  0.403142
 ----------------------------------------------------------------
             Standard Nuclear Orientation (Angstroms)
    I     Atom           X                Y                Z
 ----------------------------------------------------------------
    1      C       1.2342140097    -0.2345936021     0.0072062243
    2      C      -0.0779753288     0.5610052177    -0.0551989841
    3      O      -1.2618113647    -0.2651948557     0.1124300957
    4      H       2.1063026422     0.4280538321    -0.0728072706
    5      H       1.2936061417    -0.9670731522    -0.8086586767
    6      H       1.2983602371    -0.7770523424     0.9557035537
    7      H      -0.1222599024     1.1365562726    -0.9946349418
    8      H      -0.1105046763     1.2912561305     0.7596599533
    9      H      -1.4970129939    -0.7750182412    -0.6908544788
 ----------------------------------------------------------------
 Molecular Point Group                 C1    NOp =  1
 Largest Abelian Subgroup              C1    NOp =  1
 Nuclear Repulsion Energy =    80.4037917326 hartrees
 There are       13 alpha and       13 beta electrons
 Applying Cartesian multipole field
    Component          Value
    ---------          -----
     (2,0,0)        1.00000E-11
     (0,2,0)        2.00000E-11
     (0,0,2)       -3.00000E-11
 Nucleus-field energy     =     0.0000000013 hartrees
 Requested basis set is 6-31++G
 There are 30 shells and 57 basis functions
 A cutoff of  1.0D-11 yielded    463 shell pairs
 There are      1705 function pairs
         cpu   0.00 wall   0.00
 Smallest overlap matrix eigenvalue = 2.69E-04
 Guess MOs from SCF MO coefficient file
Reading MOs from coefficient file
GuessMan calls MO2Den with 13 electrons (IDen = 0)
Reading MOs from coefficient file
GuessMan calls MO2Den with 13 electrons (IDen = 1)
 A restricted hybrid HF-DFT SCF calculation will be
 performed using Pulay DIIS extrapolation
 Exchange:     0.2000 Hartree-Fock + 0.0800 Slater + 0.7200 Becke88
 Correlation:  0.8100 LYP + 0.1900 VWN1RPA
 Using SG-1 standard quadrature grid
 SCF converges when DIIS error is below 1.0E-08
Geometry optimization detected.  Setting ReadMinima to 0
Setting SaveMinima to 0
 Inaccurate integrated density:
   Number of electrons =    26
   Numerical integral  =    26.049355500172
   Relative error      =     0.1898288468 %
 ---------------------------------------
  Cycle       Energy         DIIS Error
 ---------------------------------------
    1    -155.0134229003      5.26E-03
    2    -155.0014643965      8.60E-04
    3    -155.0013896260      1.11E-03
    4    -155.0018231194      1.78E-04
    5    -155.0018307150      7.80E-05
    6    -155.0018329920      6.70E-06
    7    -155.0018330145      8.55E-07
    8    -155.0018330150      2.10E-07
    9    -155.0018330149      8.73E-08
   10    -155.0018330150      4.95E-09 Convergence criterion met
 ---------------------------------------
 SCF time:  CPU 1.70 s  wall 1.73 s
 SCF   energy in the final basis set = -155.0018330150
 Total energy in the final basis set = -155.0018330150
 Analysis of SCF Wavefunction
 
 --------------------------------------------------------------
 
                    Orbital Energies (a.u.)
 --------------------------------------------------------------
 
 Alpha MOs
 -- Occupied --
-19.153 -10.240 -10.181  -1.024  -0.758  -0.635  -0.513  -0.461
 -0.429  -0.390  -0.375  -0.323  -0.279
 -- Virtual --
 -0.016   0.006   0.016   0.026   0.045   0.056   0.076   0.078
  0.101   0.114   0.128   0.134   0.145   0.148   0.175   0.195
  0.206   0.225   0.227   0.254   0.259   0.285   0.311   0.352
  0.362   0.390   0.663   0.694   0.736   0.754   0.767   0.774
  0.981   1.025   1.037   1.065   1.107   1.146   1.194   1.267
  1.314   1.413   1.499   1.868
 --------------------------------------------------------------
 
          Ground-State Mulliken Net Atomic Charges

     Atom                 Charge (a.u.)
  ----------------------------------------
      1 C                    -0.594971
      2 C                    -0.357994
      3 O                    -0.531981
      4 H                     0.185327
      5 H                     0.203422
      6 H                     0.238337
      7 H                     0.200926
      8 H                     0.242027
      9 H                     0.414906
  ----------------------------------------
  Sum of atomic charges =     0.000000

 -----------------------------------------------------------------
                    Cartesian Multipole Moments
 -----------------------------------------------------------------
    Charge (ESU x 10^10)
                 0.0000
    Dipole Moment (Debye)
         X       1.3140      Y       0.1700      Z      -1.7515
       Tot       2.1962
    Quadrupole Moments (Debye-Ang)
        XX     -22.4573     XY       1.0350     YY     -19.4927
        XZ       3.0526     YZ       1.5901     ZZ     -19.5242
    Octopole Moments (Debye-Ang^2)
       XXX      -1.3233    XXY      -2.2077    XYY      -2.5711
       YYY      -1.2710    XXZ      -4.4110    XYZ      -2.2133
       YYZ      -0.7419    XZZ      -2.3728    YZZ      -0.8494
       ZZZ      -0.2176
    Hexadecapole Moments (Debye-Ang^3)
      XXXX    -175.9548   XXXY       8.4052   XXYY     -36.1939
      XYYY       3.0385   YYYY     -59.5962   XXXZ       7.7699
      XXYZ       3.2276   XYYZ       1.7332   YYYZ       2.5726
      XXZZ     -34.0273   XYZZ       0.4616   YYZZ     -14.5383
      XZZZ       2.6623   YZZZ       1.4961   ZZZZ     -36.6764
 -----------------------------------------------------------------
 Calculating analytic gradient of the SCF energy
         cpu   0.00 wall   0.00
 Gradient of Coulomb and Exchange Energy
            1           2           3           4           5           6
    1  -2.8969226  -1.5775897   6.7664012  -2.5532559  -0.6129654  -0.5277139
    2   0.5370632  -1.9605006   1.7687324  -1.4965177   1.9992305   1.5274927
    3   0.3491800   0.6342927  -3.3853644   0.1824076   2.0950338  -2.5226634
            7           8           9
    1   0.0430573   0.0334252   1.3255640
    2  -1.7133279  -2.4609063   1.7987337
    3   2.4903184  -2.3582427   2.5150381
 Gradient of SCF Energy
            1           2           3           4           5           6
    1   0.0043236  -0.0123259   0.0053584   0.0015320  -0.0001334  -0.0002531
    2   0.0020752  -0.0073283   0.0028270  -0.0008964  -0.0001992   0.0005131
    3   0.0000804   0.0042022  -0.0012975  -0.0000272  -0.0000598  -0.0003205
            7           8           9
    1   0.0022667   0.0027827  -0.0035510
    2   0.0022571   0.0026895  -0.0019381
    3  -0.0002208  -0.0008813  -0.0014756
 Max gradient component =       1.233E-02
 RMS gradient           =       3.511E-03
 Gradient time:  CPU 0.59 s  wall 0.59 s
 Geometry Optimization Parameters
   NAtoms,    NIC,     NZ,  NCons,   NDum,   NFix, NCnnct, MaxDiis
        9      51       0       0       0       0       0       0

 Cartesian Hessian Update
 Hessian Updated using BFGS Update


** GEOMETRY OPTIMIZATION IN DELOCALIZED INTERNAL COORDINATES **
   Searching for a Minimum

   Optimization Cycle:   2

                       Coordinates (Angstroms)
     ATOM                X               Y               Z
      1  C         1.2342140097   -0.2345936021    0.0072062243
      2  C        -0.0779753288    0.5610052177   -0.0551989841
      3  O        -1.2618113647   -0.2651948557    0.1124300957
      4  H         2.1063026422    0.4280538321   -0.0728072706
      5  H         1.2936061417   -0.9670731522   -0.8086586767
      6  H         1.2983602371   -0.7770523424    0.9557035537
      7  H        -0.1222599024    1.1365562726   -0.9946349418
      8  H        -0.1105046763    1.2912561305    0.7596599533
      9  H        -1.4970129939   -0.7750182412   -0.6908544788
   Point Group: c1    Number of degrees of freedom:    21


   Energy is   -155.001833015

 GETINT wrote B to file, NVib is           21
 Hessian Updated using BFGS Update

 19 Hessian modes will be used to form the next step
  Hessian Eigenvalues:
     0.006069    0.015463    0.051618    0.058610    0.059006    0.060906
     0.112440    0.137885    0.159114    0.181137    0.230402    0.303140
     0.319235    0.324173    0.325363    0.325672    0.328718    0.428188
     0.487803

 Minimum Search - Taking Simple RFO Step
 Searching for Lamda that Minimizes Along All modes
 Value Taken    Lamda =  -0.00077735
 Step Taken.  Stepsize is  0.112343

                             Maximum     Tolerance    Cnvgd?
         Gradient           0.004954      0.000300      NO
         Displacement       0.054073      0.001200      NO
         Energy change     -0.004678      0.000001      NO


 New Cartesian Coordinates Obtained by Inverse Iteration

 Displacement from previous Coordinates is:  0.105807
 ----------------------------------------------------------------
             Standard Nuclear Orientation (Angstroms)
    I     Atom           X                Y                Z
 ----------------------------------------------------------------
    1      C       1.2270504123    -0.2387703531     0.0050673047
    2      C      -0.0681459309     0.5734928438    -0.0601317193
    3      O      -1.2571622239    -0.2539557674     0.1197242580
    4      H       2.0978585326     0.4235398981    -0.0644181701
    5      H       1.2886246152    -0.9624916263    -0.8168654893
    6      H       1.2840161618    -0.7904008769     0.9483138208
    7      H      -0.1283584073     1.1360384667    -1.0032234619
    8      H      -0.1207509454     1.2928272619     0.7596343531
    9      H      -1.4602134497    -0.7823405875    -0.6752554211
 ----------------------------------------------------------------
 Molecular Point Group                 C1    NOp =  1
 Largest Abelian Subgroup              C1    NOp =  1
 Nuclear Repulsion Energy =    80.5424555057 hartrees
 There are       13 alpha and       13 beta electrons
 Applying Cartesian multipole field
    Component          Value
    ---------          -----
     (2,0,0)        1.00000E-11
     (0,2,0)        2.00000E-11
     (0,0,2)       -3.00000E-11
 Nucleus-field energy     =     0.0000000013 hartrees
 Requested basis set is 6-31++G
 There are 30 shells and 57 basis functions
 A cutoff of  1.0D-11 yielded    464 shell pairs
 There are      1706 function pairs
         cpu   0.00 wall   0.00
 Smallest overlap matrix eigenvalue = 2.66E-04
 Guess MOs from SCF MO coefficient file
Reading MOs from coefficient file
GuessMan calls MO2Den with 13 electrons (IDen = 0)
Reading MOs from coefficient file
GuessMan calls MO2Den with 13 electrons (IDen = 1)
 A restricted hybrid HF-DFT SCF calculation will be
 performed using Pulay DIIS extrapolation
 Exchange:     0.2000 Hartree-Fock + 0.0800 Slater + 0.7200 Becke88
 Correlation:  0.8100 LYP + 0.1900 VWN1RPA
 Using SG-1 standard quadrature grid
 SCF converges when DIIS error is below 1.0E-08
Geometry optimization detected.  Setting ReadMinima to 0
Setting SaveMinima to 0
 ---------------------------------------
  Cycle       Energy         DIIS Error
 ---------------------------------------
    1    -155.0033378184      1.06E-03
    2    -155.0022767488      2.78E-04
    3    -155.0022538376      4.18E-04
    4    -155.0023084909      2.35E-05
    5    -155.0023086743      1.34E-05
    6    -155.0023087469      1.59E-06
    7    -155.0023087484      2.49E-07
    8    -155.0023087484      4.00E-08
    9    -155.0023087484      2.58E-08
   10    -155.0023087485      1.90E-09 Convergence criterion met
 ---------------------------------------
 SCF time:  CPU 2.07 s  wall 2.10 s
 SCF   energy in the final basis set = -155.0023087485
 Total energy in the final basis set = -155.0023087485
 Analysis of SCF Wavefunction
 
 --------------------------------------------------------------
 
                    Orbital Energies (a.u.)
 --------------------------------------------------------------
 
 Alpha MOs
 -- Occupied --
-19.152 -10.240 -10.181  -1.023  -0.760  -0.635  -0.512  -0.461
 -0.430  -0.392  -0.375  -0.325  -0.279
 -- Virtual --
 -0.015   0.007   0.016   0.026   0.046   0.056   0.075   0.078
  0.102   0.114   0.128   0.134   0.145   0.148   0.174   0.194
  0.208   0.224   0.227   0.256   0.260   0.284   0.309   0.350
  0.362   0.391   0.661   0.692   0.735   0.755   0.770   0.773
  0.985   1.024   1.038   1.068   1.106   1.146   1.192   1.269
  1.314   1.410   1.498   1.871
 --------------------------------------------------------------
 
          Ground-State Mulliken Net Atomic Charges

     Atom                 Charge (a.u.)
  ----------------------------------------
      1 C                    -0.605946
      2 C                    -0.353875
      3 O                    -0.528409
      4 H                     0.185653
      5 H                     0.204985
      6 H                     0.240280
      7 H                     0.201525
      8 H                     0.244128
      9 H                     0.411657
  ----------------------------------------
  Sum of atomic charges =     0.000000

 -----------------------------------------------------------------
                    Cartesian Multipole Moments
 -----------------------------------------------------------------
    Charge (ESU x 10^10)
                 0.0000
    Dipole Moment (Debye)
         X       1.4005      Y       0.1405      Z      -1.7361
       Tot       2.2350
    Quadrupole Moments (Debye-Ang)
        XX     -22.6785     XY       1.0027     YY     -19.3833
        XZ       2.9567     YZ       1.5670     ZZ     -19.5229
    Octopole Moments (Debye-Ang^2)
       XXX      -0.8844    XXY      -2.2424    XYY      -2.6141
       YYY      -1.5988    XXZ      -4.1558    XYZ      -2.1501
       YYZ      -0.7070    XZZ      -2.2736    YZZ      -0.8646
       ZZZ      -0.2222
    Hexadecapole Moments (Debye-Ang^3)
      XXXX    -175.4194   XXXY       8.3993   XXYY     -35.9053
      XYYY       3.2856   YYYY     -59.7190   XXXZ       7.5827
      XXYZ       3.0983   XYYZ       1.7770   YYYZ       2.6241
      XXZZ     -33.9298   XYZZ       0.4377   YYZZ     -14.5148
      XZZZ       2.8530   YZZZ       1.5534   ZZZZ     -36.6369
 -----------------------------------------------------------------
 Calculating analytic gradient of the SCF energy
         cpu   0.00 wall   0.00
 Gradient of Coulomb and Exchange Energy
            1           2           3           4           5           6
    1  -2.8790416  -1.7283252   6.7947688  -2.5351218  -0.6276738  -0.5168039
    2   0.6880568  -2.1012593   1.6096262  -1.5227923   1.9907701   1.5759826
    3   0.3373520   0.7495741  -3.4868521   0.1572215   2.1107445  -2.5117568
            7           8           9
    1   0.1315173   0.1527305   1.2079497
    2  -1.6605798  -2.4222221   1.8424178
    3   2.5502290  -2.4344625   2.5279503
 Gradient of SCF Energy
            1           2           3           4           5           6
    1   0.0021859  -0.0048755   0.0038569  -0.0007732   0.0000965   0.0001497
    2  -0.0004561  -0.0017910   0.0007341  -0.0005360   0.0001189   0.0001163
    3   0.0001072   0.0006668  -0.0014995  -0.0000028   0.0005492  -0.0005145
            7           8           9
    1   0.0006634  -0.0003809  -0.0009227
    2   0.0005791   0.0000392   0.0011955
    3   0.0001699  -0.0006580   0.0011818
 Max gradient component =       4.876E-03
 RMS gradient           =       1.449E-03
 Gradient time:  CPU 0.53 s  wall 0.53 s
 Geometry Optimization Parameters
   NAtoms,    NIC,     NZ,  NCons,   NDum,   NFix, NCnnct, MaxDiis
        9      51       0       0       0       0       0       0

 Cartesian Hessian Update
 Hessian Updated using BFGS Update


** GEOMETRY OPTIMIZATION IN DELOCALIZED INTERNAL COORDINATES **
   Searching for a Minimum

   Optimization Cycle:   3

                       Coordinates (Angstroms)
     ATOM                X               Y               Z
      1  C         1.2270504123   -0.2387703531    0.0050673047
      2  C        -0.0681459309    0.5734928438   -0.0601317193
      3  O        -1.2571622239   -0.2539557674    0.1197242580
      4  H         2.0978585326    0.4235398981   -0.0644181701
      5  H         1.2886246152   -0.9624916263   -0.8168654893
      6  H         1.2840161618   -0.7904008769    0.9483138208
      7  H        -0.1283584073    1.1360384667   -1.0032234619
      8  H        -0.1207509454    1.2928272619    0.7596343531
      9  H        -1.4602134497   -0.7823405875   -0.6752554211
   Point Group: c1    Number of degrees of freedom:    21


   Energy is   -155.002308748

 GETINT wrote B to file, NVib is           21
 Hessian Updated using BFGS Update

 20 Hessian modes will be used to form the next step
  Hessian Eigenvalues:
     0.005976    0.012822    0.051589    0.058155    0.058974    0.059483
     0.115609    0.140031    0.159522    0.161445    0.170288    0.223962
     0.288094    0.320083    0.325007    0.325373    0.325947    0.327641
     0.429665    0.524938

 Minimum Search - Taking Simple RFO Step
 Searching for Lamda that Minimizes Along All modes
 Value Taken    Lamda =  -0.00022309
 Step Taken.  Stepsize is  0.106651

                             Maximum     Tolerance    Cnvgd?
         Gradient           0.002020      0.000300      NO
         Displacement       0.058473      0.001200      NO
         Energy change     -0.000476      0.000001      NO


 New Cartesian Coordinates Obtained by Inverse Iteration

 Displacement from previous Coordinates is:  0.100870
 ----------------------------------------------------------------
             Standard Nuclear Orientation (Angstroms)
    I     Atom           X                Y                Z
 ----------------------------------------------------------------
    1      C       1.2193511522    -0.2385750584     0.0032455618
    2      C      -0.0637124446     0.5835696281    -0.0600978642
    3      O      -1.2610209675    -0.2454729896     0.1199015650
    4      H       2.0967522280     0.4179604570    -0.0580373517
    5      H       1.2766363040    -0.9549915067    -0.8260951547
    6      H       1.2673225480    -0.7983048258     0.9429315298
    7      H      -0.1303235093     1.1372412530    -1.0067276431
    8      H      -0.1157986611     1.3005160155     0.7618547932
    9      H      -1.4262878852    -0.8040037138    -0.6641299612
 ----------------------------------------------------------------
 Molecular Point Group                 C1    NOp =  1
 Largest Abelian Subgroup              C1    NOp =  1
 Nuclear Repulsion Energy =    80.5391740298 hartrees
 There are       13 alpha and       13 beta electrons
 Applying Cartesian multipole field
    Component          Value
    ---------          -----
     (2,0,0)        1.00000E-11
     (0,2,0)        2.00000E-11
     (0,0,2)       -3.00000E-11
 Nucleus-field energy     =     0.0000000013 hartrees
 Requested basis set is 6-31++G
 There are 30 shells and 57 basis functions
 A cutoff of  1.0D-11 yielded    464 shell pairs
 There are      1706 function pairs
         cpu   0.00 wall   0.00
 Smallest overlap matrix eigenvalue = 2.63E-04
 Guess MOs from SCF MO coefficient file
Reading MOs from coefficient file
GuessMan calls MO2Den with 13 electrons (IDen = 0)
Reading MOs from coefficient file
GuessMan calls MO2Den with 13 electrons (IDen = 1)
 A restricted hybrid HF-DFT SCF calculation will be
 performed using Pulay DIIS extrapolation
 Exchange:     0.2000 Hartree-Fock + 0.0800 Slater + 0.7200 Becke88
 Correlation:  0.8100 LYP + 0.1900 VWN1RPA
 Using SG-1 standard quadrature grid
 SCF converges when DIIS error is below 1.0E-08
Geometry optimization detected.  Setting ReadMinima to 0
Setting SaveMinima to 0
 ---------------------------------------
  Cycle       Energy         DIIS Error
 ---------------------------------------
    1    -154.9992717476      9.85E-04
    2    -155.0024459507      1.24E-04
    3    -155.0024477301      1.47E-04
    4    -155.0024545543      3.46E-05
    5    -155.0024548966      9.62E-06
    6    -155.0024549323      1.99E-06
    7    -155.0024549342      2.37E-07
    8    -155.0024549342      2.44E-08
    9    -155.0024549343      1.60E-08
   10    -155.0024549343      3.18E-09 Convergence criterion met
 ---------------------------------------
 SCF time:  CPU 2.00 s  wall 2.03 s
 SCF   energy in the final basis set = -155.0024549343
 Total energy in the final basis set = -155.0024549343
 Analysis of SCF Wavefunction
 
 --------------------------------------------------------------
 
                    Orbital Energies (a.u.)
 --------------------------------------------------------------
 
 Alpha MOs
 -- Occupied --
-19.152 -10.239 -10.182  -1.021  -0.761  -0.635  -0.510  -0.462
 -0.432  -0.392  -0.375  -0.326  -0.279
 -- Virtual --
 -0.015   0.007   0.016   0.026   0.046   0.055   0.074   0.078
  0.102   0.114   0.127   0.134   0.145   0.147   0.172   0.193
  0.208   0.223   0.227   0.257   0.261   0.284   0.306   0.348
  0.362   0.390   0.659   0.690   0.734   0.755   0.770   0.771
  0.986   1.022   1.036   1.069   1.103   1.144   1.189   1.271
  1.315   1.411   1.497   1.872
 --------------------------------------------------------------
 
          Ground-State Mulliken Net Atomic Charges

     Atom                 Charge (a.u.)
  ----------------------------------------
      1 C                    -0.614690
      2 C                    -0.350301
      3 O                    -0.523038
      4 H                     0.185940
      5 H                     0.205577
      6 H                     0.241576
      7 H                     0.203809
      8 H                     0.243991
      9 H                     0.407135
  ----------------------------------------
  Sum of atomic charges =     0.000000

 -----------------------------------------------------------------
                    Cartesian Multipole Moments
 -----------------------------------------------------------------
    Charge (ESU x 10^10)
                 0.0000
    Dipole Moment (Debye)
         X       1.5054      Y       0.0936      Z      -1.6974
       Tot       2.2707
    Quadrupole Moments (Debye-Ang)
        XX     -22.9393     XY       1.0453     YY     -19.2652
        XZ       2.8493     YZ       1.5793     ZZ     -19.5381
    Octopole Moments (Debye-Ang^2)
       XXX      -0.0972    XXY      -2.2824    XYY      -2.6584
       YYY      -1.9369    XXZ      -3.8922    XYZ      -2.1165
       YYZ      -0.6766    XZZ      -2.1277    YZZ      -0.9149
       ZZZ      -0.1836
    Hexadecapole Moments (Debye-Ang^3)
      XXXX    -175.6385   XXXY       8.2953   XXYY     -35.7678
      XYYY       3.4430   YYYY     -59.8931   XXXZ       7.2111
      XXYZ       3.0179   XYYZ       1.8317   YYYZ       2.6348
      XXZZ     -33.9608   XYZZ       0.4089   YYZZ     -14.5111
      XZZZ       2.8696   YZZZ       1.5169   ZZZZ     -36.6366
 -----------------------------------------------------------------
 Calculating analytic gradient of the SCF energy
         cpu   0.00 wall   0.00
 Gradient of Coulomb and Exchange Energy
            1           2           3           4           5           6
    1  -2.9077487  -1.7476587   6.8925251  -2.5463578  -0.6130308  -0.4819710
    2   0.7062907  -2.1441492   1.4777821  -1.5164531   1.9729367   1.6029202
    3   0.3416709   0.7029010  -3.4278687   0.1351685   2.1307071  -2.4998595
            7           8           9
    1   0.1738201   0.1426814   1.0877404
    2  -1.6099071  -2.4136365   1.9242162
    3   2.5851370  -2.4653775   2.4975211
 Gradient of SCF Energy
            1           2           3           4           5           6
    1  -0.0002804  -0.0000804   0.0014202  -0.0004232  -0.0001692  -0.0000689
    2  -0.0003909   0.0004200  -0.0009259   0.0002719   0.0000800  -0.0000409
    3   0.0000135  -0.0000229  -0.0007009  -0.0000385   0.0001286  -0.0000593
            7           8           9
    1   0.0001197  -0.0002357  -0.0002821
    2  -0.0005246  -0.0001409   0.0012514
    3   0.0000009  -0.0000018   0.0006806
 Max gradient component =       1.420E-03
 RMS gradient           =       4.933E-04
 Gradient time:  CPU 0.59 s  wall 0.59 s
 Geometry Optimization Parameters
   NAtoms,    NIC,     NZ,  NCons,   NDum,   NFix, NCnnct, MaxDiis
        9      51       0       0       0       0       0       0

 Cartesian Hessian Update
 Hessian Updated using BFGS Update


** GEOMETRY OPTIMIZATION IN DELOCALIZED INTERNAL COORDINATES **
   Searching for a Minimum

   Optimization Cycle:   4

                       Coordinates (Angstroms)
     ATOM                X               Y               Z
      1  C         1.2193511522   -0.2385750584    0.0032455618
      2  C        -0.0637124446    0.5835696281   -0.0600978642
      3  O        -1.2610209675   -0.2454729896    0.1199015650
      4  H         2.0967522280    0.4179604570   -0.0580373517
      5  H         1.2766363040   -0.9549915067   -0.8260951547
      6  H         1.2673225480   -0.7983048258    0.9429315298
      7  H        -0.1303235093    1.1372412530   -1.0067276431
      8  H        -0.1157986611    1.3005160155    0.7618547932
      9  H        -1.4262878852   -0.8040037138   -0.6641299612
   Point Group: c1    Number of degrees of freedom:    21


   Energy is   -155.002454934

 GETINT wrote B to file, NVib is           21
 Hessian Updated using BFGS Update

 21 Hessian modes will be used to form the next step
  Hessian Eigenvalues:
     0.005560    0.007726    0.054004    0.058635    0.058998    0.063422
     0.115367    0.139962    0.154986    0.159993    0.162281    0.177528
     0.232241    0.311896    0.320267    0.324988    0.325298    0.326593
     0.337644    0.421017    0.503432

 Minimum Search - Taking Simple RFO Step
 Searching for Lamda that Minimizes Along All modes
 Value Taken    Lamda =  -0.00009640
 Step Taken.  Stepsize is  0.108999

                             Maximum     Tolerance    Cnvgd?
         Gradient           0.000847      0.000300      NO
         Displacement       0.068618      0.001200      NO
         Energy change     -0.000146      0.000001      NO


 New Cartesian Coordinates Obtained by Inverse Iteration

 Displacement from previous Coordinates is:  0.091030
 ----------------------------------------------------------------
             Standard Nuclear Orientation (Angstroms)
    I     Atom           X                Y                Z
 ----------------------------------------------------------------
    1      C       1.2145560163    -0.2386779271     0.0010980407
    2      C      -0.0629789833     0.5912743334    -0.0617589183
    3      O      -1.2690794597    -0.2337951308     0.1171379775
    4      H       2.0988378280     0.4102173243    -0.0518181115
    5      H       1.2716073395    -0.9495107737    -0.8336612823
    6      H       1.2554789774    -0.8056081372     0.9370986588
    7      H      -0.1311716931     1.1454553891    -1.0078977205
    8      H      -0.1145814520     1.3060827032     0.7619538910
    9      H      -1.3997498083    -0.8274985218    -0.6493070605
 ----------------------------------------------------------------
 Molecular Point Group                 C1    NOp =  1
 Largest Abelian Subgroup              C1    NOp =  1
 Nuclear Repulsion Energy =    80.4661755443 hartrees
 There are       13 alpha and       13 beta electrons
 Applying Cartesian multipole field
    Component          Value
    ---------          -----
     (2,0,0)        1.00000E-11
     (0,2,0)        2.00000E-11
     (0,0,2)       -3.00000E-11
 Nucleus-field energy     =     0.0000000013 hartrees
 Requested basis set is 6-31++G
 There are 30 shells and 57 basis functions
 A cutoff of  1.0D-11 yielded    464 shell pairs
 There are      1706 function pairs
         cpu   0.00 wall   0.00
 Smallest overlap matrix eigenvalue = 2.65E-04
 Guess MOs from SCF MO coefficient file
Reading MOs from coefficient file
GuessMan calls MO2Den with 13 electrons (IDen = 0)
Reading MOs from coefficient file
GuessMan calls MO2Den with 13 electrons (IDen = 1)
 A restricted hybrid HF-DFT SCF calculation will be
 performed using Pulay DIIS extrapolation
 Exchange:     0.2000 Hartree-Fock + 0.0800 Slater + 0.7200 Becke88
 Correlation:  0.8100 LYP + 0.1900 VWN1RPA
 Using SG-1 standard quadrature grid
 SCF converges when DIIS error is below 1.0E-08
Geometry optimization detected.  Setting ReadMinima to 0
Setting SaveMinima to 0
 ---------------------------------------
  Cycle       Energy         DIIS Error
 ---------------------------------------
    1    -154.9998318853      8.32E-04
    2    -155.0025161818      8.44E-05
    3    -155.0025198678      4.90E-05
    4    -155.0025204539      3.44E-05
    5    -155.0025208366      7.77E-06
    6    -155.0025208561      1.69E-06
    7    -155.0025208574      1.83E-07
    8    -155.0025208574      2.34E-08
    9    -155.0025208574      1.49E-08
   10    -155.0025208576      2.22E-09 Convergence criterion met
 ---------------------------------------
 SCF time:  CPU 1.96 s  wall 1.99 s
 SCF   energy in the final basis set = -155.0025208576
 Total energy in the final basis set = -155.0025208576
 Analysis of SCF Wavefunction
 
 --------------------------------------------------------------
 
                    Orbital Energies (a.u.)
 --------------------------------------------------------------
 
 Alpha MOs
 -- Occupied --
-19.152 -10.240 -10.184  -1.020  -0.761  -0.635  -0.508  -0.461
 -0.433  -0.392  -0.375  -0.327  -0.279
 -- Virtual --
 -0.015   0.007   0.015   0.026   0.045   0.055   0.073   0.078
  0.102   0.114   0.127   0.134   0.144   0.147   0.171   0.193
  0.208   0.222   0.227   0.257   0.262   0.284   0.303   0.344
  0.362   0.389   0.659   0.689   0.733   0.755   0.767   0.771
  0.986   1.021   1.034   1.069   1.098   1.143   1.186   1.272
  1.316   1.410   1.496   1.872
 --------------------------------------------------------------
 
          Ground-State Mulliken Net Atomic Charges

     Atom                 Charge (a.u.)
  ----------------------------------------
      1 C                    -0.624899
      2 C                    -0.345067
      3 O                    -0.518187
      4 H                     0.186809
      5 H                     0.206522
      6 H                     0.242287
      7 H                     0.205381
      8 H                     0.244127
      9 H                     0.403026
  ----------------------------------------
  Sum of atomic charges =     0.000000

 -----------------------------------------------------------------
                    Cartesian Multipole Moments
 -----------------------------------------------------------------
    Charge (ESU x 10^10)
                 0.0000
    Dipole Moment (Debye)
         X       1.6002      Y       0.0281      Z      -1.6461
       Tot       2.2958
    Quadrupole Moments (Debye-Ang)
        XX     -23.1508     XY       1.1046     YY     -19.1324
        XZ       2.7308     YZ       1.5761     ZZ     -19.5878
    Octopole Moments (Debye-Ang^2)
       XXX       0.7508    XXY      -2.3923    XYY      -2.7162
       YYY      -2.3012    XXZ      -3.6139    XYZ      -2.0797
       YYZ      -0.6312    XZZ      -1.9584    YZZ      -0.9809
       ZZZ      -0.0556
    Hexadecapole Moments (Debye-Ang^3)
      XXXX    -176.4014   XXXY       8.4143   XXYY     -35.7264
      XYYY       3.7584   YYYY     -59.9870   XXXZ       6.8314
      XXYZ       2.9596   XYYZ       1.8572   YYYZ       2.6300
      XXZZ     -34.1187   XYZZ       0.4300   YYZZ     -14.5081
      XZZZ       2.8278   YZZZ       1.4848   ZZZZ     -36.6404
 -----------------------------------------------------------------
 Calculating analytic gradient of the SCF energy
         cpu   0.00 wall   0.00
 Gradient of Coulomb and Exchange Energy
            1           2           3           4           5           6
    1  -2.9392957  -1.7576964   7.0188127  -2.5683711  -0.6106534  -0.4572003
    2   0.6912037  -2.0990241   1.3076724  -1.4952508   1.9566353   1.6250186
    3   0.3420854   0.6951179  -3.3530163   0.1114232   2.1374524  -2.4817396
            7           8           9
    1   0.1985931   0.1357687   0.9800425
    2  -1.6045791  -2.4093072   2.0276313
    3   2.5858088  -2.4770969   2.4399653
 Gradient of SCF Energy
            1           2           3           4           5           6
    1  -0.0007493   0.0018263  -0.0006285   0.0000803  -0.0000777  -0.0000124
    2  -0.0002121   0.0012184  -0.0011945   0.0002340   0.0000150  -0.0001142
    3   0.0001057  -0.0005243   0.0006194  -0.0000042  -0.0000733   0.0000495
            7           8           9
    1  -0.0002114  -0.0003026   0.0000754
    2  -0.0004753  -0.0001770   0.0007058
    3  -0.0000797   0.0000979  -0.0001910
 Max gradient component =       1.826E-03
 RMS gradient           =       5.759E-04
 Gradient time:  CPU 0.47 s  wall 0.47 s
 Geometry Optimization Parameters
   NAtoms,    NIC,     NZ,  NCons,   NDum,   NFix, NCnnct, MaxDiis
        9      51       0       0       0       0       0       0

 Cartesian Hessian Update
 Hessian Updated using BFGS Update


** GEOMETRY OPTIMIZATION IN DELOCALIZED INTERNAL COORDINATES **
   Searching for a Minimum

   Optimization Cycle:   5

                       Coordinates (Angstroms)
     ATOM                X               Y               Z
      1  C         1.2145560163   -0.2386779271    0.0010980407
      2  C        -0.0629789833    0.5912743334   -0.0617589183
      3  O        -1.2690794597   -0.2337951308    0.1171379775
      4  H         2.0988378280    0.4102173243   -0.0518181115
      5  H         1.2716073395   -0.9495107737   -0.8336612823
      6  H         1.2554789774   -0.8056081372    0.9370986588
      7  H        -0.1311716931    1.1454553891   -1.0078977205
      8  H        -0.1145814520    1.3060827032    0.7619538910
      9  H        -1.3997498083   -0.8274985218   -0.6493070605
   Point Group: c1    Number of degrees of freedom:    21


   Energy is   -155.002520858

 GETINT wrote B to file, NVib is           21
 Hessian Updated using BFGS Update

 21 Hessian modes will be used to form the next step
  Hessian Eigenvalues:
     0.003798    0.006247    0.053943    0.058715    0.059006    0.063126
     0.118137    0.139942    0.159928    0.162275    0.164193    0.183451
     0.232285    0.308094    0.320257    0.325268    0.325718    0.326577
     0.337015    0.441819    0.514079

 Minimum Search - Taking Simple RFO Step
 Searching for Lamda that Minimizes Along All modes
 Value Taken    Lamda =  -0.00005503
 Step Taken.  Stepsize is  0.102816

                             Maximum     Tolerance    Cnvgd?
         Gradient           0.000797      0.000300      NO
         Displacement       0.069895      0.001200      NO
         Energy change     -0.000066      0.000001      NO


 New Cartesian Coordinates Obtained by Inverse Iteration

 Displacement from previous Coordinates is:  0.080514
 ----------------------------------------------------------------
             Standard Nuclear Orientation (Angstroms)
    I     Atom           X                Y                Z
 ----------------------------------------------------------------
    1      C       1.2103213071    -0.2390084218    -0.0009870669
    2      C      -0.0638239256     0.5967402829    -0.0630332910
    3      O      -1.2760051461    -0.2225129277     0.1101491295
    4      H       2.0985349794     0.4046734807    -0.0487448843
    5      H       1.2671044559    -0.9463382322    -0.8390749318
    6      H       1.2466536766    -0.8102290082     0.9326833809
    7      H      -0.1279155690     1.1557250024    -1.0068129962
    8      H      -0.1130343091     1.3093109867     0.7628906872
    9      H      -1.3789167047    -0.8504219036    -0.6342245526
 ----------------------------------------------------------------
 Molecular Point Group                 C1    NOp =  1
 Largest Abelian Subgroup              C1    NOp =  1
 Nuclear Repulsion Energy =    80.4376114318 hartrees
 There are       13 alpha and       13 beta electrons
 Applying Cartesian multipole field
    Component          Value
    ---------          -----
     (2,0,0)        1.00000E-11
     (0,2,0)        2.00000E-11
     (0,0,2)       -3.00000E-11
 Nucleus-field energy     =     0.0000000013 hartrees
 Requested basis set is 6-31++G
 There are 30 shells and 57 basis functions
 A cutoff of  1.0D-11 yielded    464 shell pairs
 There are      1706 function pairs
         cpu   0.00 wall   0.00
 Smallest overlap matrix eigenvalue = 2.67E-04
 Guess MOs from SCF MO coefficient file
Reading MOs from coefficient file
GuessMan calls MO2Den with 13 electrons (IDen = 0)
Reading MOs from coefficient file
GuessMan calls MO2Den with 13 electrons (IDen = 1)
 A restricted hybrid HF-DFT SCF calculation will be
 performed using Pulay DIIS extrapolation
 Exchange:     0.2000 Hartree-Fock + 0.0800 Slater + 0.7200 Becke88
 Correlation:  0.8100 LYP + 0.1900 VWN1RPA
 Using SG-1 standard quadrature grid
 SCF converges when DIIS error is below 1.0E-08
Geometry optimization detected.  Setting ReadMinima to 0
Setting SaveMinima to 0
 ---------------------------------------
  Cycle       Energy         DIIS Error
 ---------------------------------------
    1    -155.0015835843      7.28E-04
    2    -155.0025549981      6.64E-05
    3    -155.0025578114      1.72E-05
    4    -155.0025577966      2.13E-05
    5    -155.0025579539      3.03E-06
    6    -155.0025579565      1.25E-06
    7    -155.0025579572      6.40E-08
    8    -155.0025579572      8.71E-09 Convergence criterion met
 ---------------------------------------
 SCF time:  CPU 1.44 s  wall 1.47 s
 SCF   energy in the final basis set = -155.0025579572
 Total energy in the final basis set = -155.0025579572
 Analysis of SCF Wavefunction
 
 --------------------------------------------------------------
 
                    Orbital Energies (a.u.)
 --------------------------------------------------------------
 
 Alpha MOs
 -- Occupied --
-19.152 -10.240 -10.184  -1.020  -0.761  -0.636  -0.507  -0.461
 -0.435  -0.391  -0.376  -0.327  -0.279
 -- Virtual --
 -0.015   0.007   0.015   0.026   0.045   0.055   0.073   0.078
  0.102   0.114   0.127   0.134   0.144   0.147   0.170   0.192
  0.208   0.221   0.227   0.256   0.263   0.284   0.302   0.342
  0.362   0.388   0.659   0.689   0.733   0.754   0.765   0.770
  0.986   1.021   1.033   1.070   1.094   1.143   1.184   1.273
  1.316   1.410   1.495   1.871
 --------------------------------------------------------------
 
          Ground-State Mulliken Net Atomic Charges

     Atom                 Charge (a.u.)
  ----------------------------------------
      1 C                    -0.633213
      2 C                    -0.339725
      3 O                    -0.515331
      4 H                     0.187675
      5 H                     0.207353
      6 H                     0.242406
      7 H                     0.206460
      8 H                     0.243957
      9 H                     0.400420
  ----------------------------------------
  Sum of atomic charges =     0.000000

 -----------------------------------------------------------------
                    Cartesian Multipole Moments
 -----------------------------------------------------------------
    Charge (ESU x 10^10)
                 0.0000
    Dipole Moment (Debye)
         X       1.6739      Y      -0.0405      Z      -1.5875
       Tot       2.3073
    Quadrupole Moments (Debye-Ang)
        XX     -23.3223     XY       1.1781     YY     -19.0028
        XZ       2.6082     YZ       1.5693     ZZ     -19.6403
    Octopole Moments (Debye-Ang^2)
       XXX       1.4422    XXY      -2.5090    XYY      -2.7825
       YYY      -2.6440    XXZ      -3.3375    XYZ      -2.0463
       YYZ      -0.5749    XZZ      -1.8042    YZZ      -1.0495
       ZZZ       0.1382
    Hexadecapole Moments (Debye-Ang^3)
      XXXX    -176.9864   XXXY       8.5983   XXYY     -35.6486
      XYYY       4.1009   YYYY     -60.0426   XXXZ       6.3941
      XXYZ       2.9081   XYYZ       1.8446   YYYZ       2.6092
      XXZZ     -34.2404   XYZZ       0.4733   YYZZ     -14.5066
      XZZZ       2.6982   YZZZ       1.4362   ZZZZ     -36.6176
 -----------------------------------------------------------------
 Calculating analytic gradient of the SCF energy
         cpu   0.00 wall   0.00
 Gradient of Coulomb and Exchange Energy
            1           2           3           4           5           6
    1  -2.9776904  -1.7542153   7.1428497  -2.5840055  -0.6078009  -0.4387484
    2   0.6794277  -2.0482177   1.1492636  -1.4829925   1.9466308   1.6362297
    3   0.3438018   0.6729476  -3.2427526   0.0963892   2.1397996  -2.4687485
            7           8           9
    1   0.1982807   0.1188247   0.9025055
    2  -1.6174640  -2.4046728   2.1417952
    3   2.5737513  -2.4825949   2.3674063
 Gradient of SCF Energy
            1           2           3           4           5           6
    1  -0.0005906   0.0019876  -0.0013549   0.0001799   0.0000120  -0.0000320
    2   0.0000248   0.0011517  -0.0009212   0.0000517  -0.0000251  -0.0000734
    3   0.0000394  -0.0003600   0.0009437   0.0000232  -0.0001485   0.0000565
            7           8           9
    1  -0.0001899  -0.0000875   0.0000753
    2  -0.0002115   0.0000033  -0.0000001
    3  -0.0000428   0.0000745  -0.0005859
 Max gradient component =       1.988E-03
 RMS gradient           =       6.039E-04
 Gradient time:  CPU 0.48 s  wall 0.48 s
 Geometry Optimization Parameters
   NAtoms,    NIC,     NZ,  NCons,   NDum,   NFix, NCnnct, MaxDiis
        9      51       0       0       0       0       0       0

 Cartesian Hessian Update
 Hessian Updated using BFGS Update


** GEOMETRY OPTIMIZATION IN DELOCALIZED INTERNAL COORDINATES **
   Searching for a Minimum

   Optimization Cycle:   6

                       Coordinates (Angstroms)
     ATOM                X               Y               Z
      1  C         1.2103213071   -0.2390084218   -0.0009870669
      2  C        -0.0638239256    0.5967402829   -0.0630332910
      3  O        -1.2760051461   -0.2225129277    0.1101491295
      4  H         2.0985349794    0.4046734807   -0.0487448843
      5  H         1.2671044559   -0.9463382322   -0.8390749318
      6  H         1.2466536766   -0.8102290082    0.9326833809
      7  H        -0.1279155690    1.1557250024   -1.0068129962
      8  H        -0.1130343091    1.3093109867    0.7628906872
      9  H        -1.3789167047   -0.8504219036   -0.6342245526
   Point Group: c1    Number of degrees of freedom:    21


   Energy is   -155.002557957

 GETINT wrote B to file, NVib is           21
 Hessian Updated using BFGS Update

 21 Hessian modes will be used to form the next step
  Hessian Eigenvalues:
     0.002920    0.006071    0.053657    0.057947    0.059024    0.059245
     0.117059    0.140032    0.160131    0.162274    0.165061    0.173283
     0.224943    0.301630    0.320248    0.325372    0.325619    0.326660
     0.332559    0.439070    0.550151

 Minimum Search - Taking Simple RFO Step
 Searching for Lamda that Minimizes Along All modes
 Value Taken    Lamda =  -0.00002843
 Step Taken.  Stepsize is  0.070194

                             Maximum     Tolerance    Cnvgd?
         Gradient           0.000815      0.000300      NO
         Displacement       0.049404      0.001200      NO
         Energy change     -0.000037      0.000001      NO


 New Cartesian Coordinates Obtained by Inverse Iteration

 Displacement from previous Coordinates is:  0.049565
 ----------------------------------------------------------------
             Standard Nuclear Orientation (Angstroms)
    I     Atom           X                Y                Z
 ----------------------------------------------------------------
    1      C       1.2079692137    -0.2395028162    -0.0020963891
    2      C      -0.0654350931     0.5988527629    -0.0638206927
    3      O      -1.2800829340    -0.2142529652     0.1029536176
    4      H       2.0972540654     0.4023757278    -0.0491953775
    5      H       1.2639035558    -0.9459472375    -0.8409895642
    6      H       1.2435913136    -0.8118079287     0.9309249531
    7      H      -0.1238640033     1.1633397528    -1.0049823107
    8      H      -0.1129934449     1.3090668469     0.7643207591
    9      H      -1.3674239085    -0.8641848834    -0.6242695207
 ----------------------------------------------------------------
 Molecular Point Group                 C1    NOp =  1
 Largest Abelian Subgroup              C1    NOp =  1
 Nuclear Repulsion Energy =    80.4534815125 hartrees
 There are       13 alpha and       13 beta electrons
 Applying Cartesian multipole field
    Component          Value
    ---------          -----
     (2,0,0)        1.00000E-11
     (0,2,0)        2.00000E-11
     (0,0,2)       -3.00000E-11
 Nucleus-field energy     =     0.0000000013 hartrees
 Requested basis set is 6-31++G
 There are 30 shells and 57 basis functions
 A cutoff of  1.0D-11 yielded    464 shell pairs
 There are      1706 function pairs
         cpu   0.00 wall   0.00
 Smallest overlap matrix eigenvalue = 2.68E-04
 Guess MOs from SCF MO coefficient file
Reading MOs from coefficient file
GuessMan calls MO2Den with 13 electrons (IDen = 0)
Reading MOs from coefficient file
GuessMan calls MO2Den with 13 electrons (IDen = 1)
 A restricted hybrid HF-DFT SCF calculation will be
 performed using Pulay DIIS extrapolation
 Exchange:     0.2000 Hartree-Fock + 0.0800 Slater + 0.7200 Becke88
 Correlation:  0.8100 LYP + 0.1900 VWN1RPA
 Using SG-1 standard quadrature grid
 SCF converges when DIIS error is below 1.0E-08
Geometry optimization detected.  Setting ReadMinima to 0
Setting SaveMinima to 0
 ---------------------------------------
  Cycle       Energy         DIIS Error
 ---------------------------------------
    1    -155.0031553302      5.26E-04
    2    -155.0025747469      4.74E-05
    3    -155.0025761216      1.37E-05
    4    -155.0025761445      1.44E-05
    5    -155.0025762131      2.77E-06
    6    -155.0025762154      9.88E-07
    7    -155.0025762158      1.45E-07
    8    -155.0025762158      8.22E-09 Convergence criterion met
 ---------------------------------------
 SCF time:  CPU 1.43 s  wall 1.45 s
 SCF   energy in the final basis set = -155.0025762158
 Total energy in the final basis set = -155.0025762158
 Analysis of SCF Wavefunction
 
 --------------------------------------------------------------
 
                    Orbital Energies (a.u.)
 --------------------------------------------------------------
 
 Alpha MOs
 -- Occupied --
-19.152 -10.240 -10.185  -1.020  -0.761  -0.636  -0.507  -0.461
 -0.436  -0.391  -0.376  -0.327  -0.279
 -- Virtual --
 -0.015   0.007   0.016   0.025   0.045   0.055   0.073   0.078
  0.102   0.114   0.127   0.134   0.144   0.147   0.170   0.192
  0.208   0.221   0.227   0.257   0.263   0.284   0.301   0.340
  0.362   0.388   0.660   0.689   0.732   0.754   0.763   0.769
  0.986   1.021   1.032   1.070   1.092   1.142   1.184   1.274
  1.316   1.409   1.494   1.871
 --------------------------------------------------------------
 
          Ground-State Mulliken Net Atomic Charges

     Atom                 Charge (a.u.)
  ----------------------------------------
      1 C                    -0.637690
      2 C                    -0.336058
      3 O                    -0.514449
      4 H                     0.188230
      5 H                     0.207797
      6 H                     0.242100
      7 H                     0.206806
      8 H                     0.243706
      9 H                     0.399558
  ----------------------------------------
  Sum of atomic charges =     0.000000

 -----------------------------------------------------------------
                    Cartesian Multipole Moments
 -----------------------------------------------------------------
    Charge (ESU x 10^10)
                 0.0000
    Dipole Moment (Debye)
         X       1.7113      Y      -0.0909      Z      -1.5439
       Tot       2.3067
    Quadrupole Moments (Debye-Ang)
        XX     -23.4183     XY       1.2335     YY     -18.9236
        XZ       2.5229     YZ       1.5605     ZZ     -19.6742
    Octopole Moments (Debye-Ang^2)
       XXX       1.8288    XXY      -2.5901    XYY      -2.8299
       YYY      -2.8737    XXZ      -3.1473    XYZ      -2.0257
       YYZ      -0.5287    XZZ      -1.7137    YZZ      -1.0998
       ZZZ       0.3077
    Hexadecapole Moments (Debye-Ang^3)
      XXXX    -177.3222   XXXY       8.7886   XXYY     -35.5804
      XYYY       4.3694   YYYY     -60.0333   XXXZ       6.0526
      XXYZ       2.8681   XYYZ       1.8082   YYYZ       2.5841
      XXZZ     -34.3051   XYZZ       0.5233   YYZZ     -14.5018
      XZZZ       2.5552   YZZZ       1.3981   ZZZZ     -36.5872
 -----------------------------------------------------------------
 Calculating analytic gradient of the SCF energy
         cpu   0.00 wall   0.00
 Gradient of Coulomb and Exchange Energy
            1           2           3           4           5           6
    1  -3.0062259  -1.7531710   7.2303308  -2.5907280  -0.6037809  -0.4336525
    2   0.6734704  -2.0058229   1.0405891  -1.4804694   1.9438607   1.6381983
    3   0.3381782   0.6624900  -3.1565478   0.0938050   2.1380103  -2.4626823
            7           8           9
    1   0.1864390   0.1081017   0.8626868
    2  -1.6346245  -2.3977663   2.2225646
    3   2.5600523  -2.4875252   2.3142195
 Gradient of SCF Energy
            1           2           3           4           5           6
    1  -0.0001576   0.0009584  -0.0009052   0.0001599   0.0000178  -0.0000288
    2   0.0000976   0.0004321  -0.0003218  -0.0000548   0.0000017  -0.0000374
    3  -0.0000125  -0.0001441   0.0005654   0.0000274  -0.0000921   0.0000113
            7           8           9
    1  -0.0000907   0.0000317   0.0000145
    2   0.0000358   0.0000563  -0.0002094
    3   0.0000122   0.0000317  -0.0003992
 Max gradient component =       9.584E-04
 RMS gradient           =       3.140E-04
 Gradient time:  CPU 0.51 s  wall 0.52 s
 Geometry Optimization Parameters
   NAtoms,    NIC,     NZ,  NCons,   NDum,   NFix, NCnnct, MaxDiis
        9      51       0       0       0       0       0       0

 Cartesian Hessian Update
 Hessian Updated using BFGS Update


** GEOMETRY OPTIMIZATION IN DELOCALIZED INTERNAL COORDINATES **
   Searching for a Minimum

   Optimization Cycle:   7

                       Coordinates (Angstroms)
     ATOM                X               Y               Z
      1  C         1.2079692137   -0.2395028162   -0.0020963891
      2  C        -0.0654350931    0.5988527629   -0.0638206927
      3  O        -1.2800829340   -0.2142529652    0.1029536176
      4  H         2.0972540654    0.4023757278   -0.0491953775
      5  H         1.2639035558   -0.9459472375   -0.8409895642
      6  H         1.2435913136   -0.8118079287    0.9309249531
      7  H        -0.1238640033    1.1633397528   -1.0049823107
      8  H        -0.1129934449    1.3090668469    0.7643207591
      9  H        -1.3674239085   -0.8641848834   -0.6242695207
   Point Group: c1    Number of degrees of freedom:    21


   Energy is   -155.002576216

 GETINT wrote B to file, NVib is           21
 Hessian Updated using BFGS Update

 21 Hessian modes will be used to form the next step
  Hessian Eigenvalues:
     0.002937    0.005890    0.053349    0.055782    0.058973    0.059150
     0.114094    0.140027    0.154763    0.160588    0.162323    0.171240
     0.220256    0.296527    0.320256    0.325354    0.325401    0.326394
     0.331050    0.415918    0.513794

 Minimum Search - Taking Simple RFO Step
 Searching for Lamda that Minimizes Along All modes
 Value Taken    Lamda =  -0.00000689
 Step Taken.  Stepsize is  0.022598

                             Maximum     Tolerance    Cnvgd?
         Gradient           0.000545      0.000300      NO
         Displacement       0.014512      0.001200      NO
         Energy change     -0.000018      0.000001      NO


 New Cartesian Coordinates Obtained by Inverse Iteration

 Displacement from previous Coordinates is:  0.015314
 ----------------------------------------------------------------
             Standard Nuclear Orientation (Angstroms)
    I     Atom           X                Y                Z
 ----------------------------------------------------------------
    1      C       1.2072346980    -0.2398707537    -0.0021668148
    2      C      -0.0663473859     0.5988929654    -0.0636203106
    3      O      -1.2805214598    -0.2118288378     0.0997144759
    4      H       2.0957927145     0.4025435064    -0.0514622485
    5      H       1.2620807402    -0.9472302452    -0.8403033853
    6      H       1.2445070766    -0.8111123762     0.9313944473
    7      H      -0.1216031557     1.1656342998    -1.0037227598
    8      H      -0.1135011483     1.3079164197     0.7655846356
    9      H      -1.3647233151    -0.8670057191    -0.6225725650
 ----------------------------------------------------------------
 Molecular Point Group                 C1    NOp =  1
 Largest Abelian Subgroup              C1    NOp =  1
 Nuclear Repulsion Energy =    80.4839264752 hartrees
 There are       13 alpha and       13 beta electrons
 Applying Cartesian multipole field
    Component          Value
    ---------          -----
     (2,0,0)        1.00000E-11
     (0,2,0)        2.00000E-11
     (0,0,2)       -3.00000E-11
 Nucleus-field energy     =     0.0000000013 hartrees
 Requested basis set is 6-31++G
 There are 30 shells and 57 basis functions
 A cutoff of  1.0D-11 yielded    464 shell pairs
 There are      1706 function pairs
         cpu   0.00 wall   0.00
 Smallest overlap matrix eigenvalue = 2.68E-04
 Guess MOs from SCF MO coefficient file
Reading MOs from coefficient file
GuessMan calls MO2Den with 13 electrons (IDen = 0)
Reading MOs from coefficient file
GuessMan calls MO2Den with 13 electrons (IDen = 1)
 A restricted hybrid HF-DFT SCF calculation will be
 performed using Pulay DIIS extrapolation
 Exchange:     0.2000 Hartree-Fock + 0.0800 Slater + 0.7200 Becke88
 Correlation:  0.8100 LYP + 0.1900 VWN1RPA
 Using SG-1 standard quadrature grid
 SCF converges when DIIS error is below 1.0E-08
Geometry optimization detected.  Setting ReadMinima to 0
Setting SaveMinima to 0
 ---------------------------------------
  Cycle       Energy         DIIS Error
 ---------------------------------------
    1    -155.0034433449      2.17E-04
    2    -155.0025798693      2.14E-05
    3    -155.0025801005      1.15E-05
    4    -155.0025801471      6.07E-06
    5    -155.0025801607      1.47E-06
    6    -155.0025801613      6.39E-07
    7    -155.0025801615      5.83E-08
    8    -155.0025801613      5.45E-09 Convergence criterion met
 ---------------------------------------
 SCF time:  CPU 1.57 s  wall 1.65 s
 SCF   energy in the final basis set = -155.0025801613
 Total energy in the final basis set = -155.0025801613
 Analysis of SCF Wavefunction
 
 --------------------------------------------------------------
 
                    Orbital Energies (a.u.)
 --------------------------------------------------------------
 
 Alpha MOs
 -- Occupied --
-19.152 -10.240 -10.185  -1.021  -0.761  -0.636  -0.507  -0.462
 -0.436  -0.391  -0.376  -0.327  -0.279
 -- Virtual --
 -0.015   0.007   0.016   0.025   0.045   0.055   0.073   0.078
  0.102   0.114   0.127   0.134   0.144   0.147   0.171   0.193
  0.208   0.221   0.227   0.257   0.264   0.284   0.301   0.340
  0.363   0.387   0.660   0.689   0.732   0.754   0.763   0.769
  0.986   1.022   1.032   1.071   1.091   1.142   1.184   1.274
  1.316   1.409   1.494   1.871
 --------------------------------------------------------------
 
          Ground-State Mulliken Net Atomic Charges

     Atom                 Charge (a.u.)
  ----------------------------------------
      1 C                    -0.638390
      2 C                    -0.334930
      3 O                    -0.514658
      4 H                     0.188310
      5 H                     0.207798
      6 H                     0.241857
      7 H                     0.206766
      8 H                     0.243502
      9 H                     0.399745
  ----------------------------------------
  Sum of atomic charges =     0.000000

 -----------------------------------------------------------------
                    Cartesian Multipole Moments
 -----------------------------------------------------------------
    Charge (ESU x 10^10)
                 0.0000
    Dipole Moment (Debye)
         X       1.7158      Y      -0.1057      Z      -1.5310
       Tot       2.3020
    Quadrupole Moments (Debye-Ang)
        XX     -23.4401     XY       1.2498     YY     -18.9060
        XZ       2.4987     YZ       1.5593     ZZ     -19.6787
    Octopole Moments (Debye-Ang^2)
       XXX       1.8935    XXY      -2.6097    XYY      -2.8421
       YYY      -2.9348    XXZ      -3.0947    XYZ      -2.0242
       YYZ      -0.5146    XZZ      -1.6992    YZZ      -1.1161
       ZZZ       0.3678
    Hexadecapole Moments (Debye-Ang^3)
      XXXX    -177.3364   XXXY       8.8602   XXYY     -35.5436
      XYYY       4.4572   YYYY     -60.0190   XXXZ       5.9272
      XXYZ       2.8520   XYYZ       1.7846   YYYZ       2.5716
      XXZZ     -34.2958   XYZZ       0.5486   YYZZ     -14.4979
      XZZZ       2.4887   YZZZ       1.3820   ZZZZ     -36.5682
 -----------------------------------------------------------------
 Calculating analytic gradient of the SCF energy
         cpu   0.00 wall   0.00
 Gradient of Coulomb and Exchange Energy
            1           2           3           4           5           6
    1  -3.0128128  -1.7542726   7.2553159  -2.5892551  -0.6012916  -0.4374908
    2   0.6764098  -1.9990611   1.0141718  -1.4839592   1.9466368   1.6350331
    3   0.3340076   0.6568916  -3.1279768   0.0995882   2.1354402  -2.4633568
            7           8           9
    1   0.1769004   0.1054899   0.8574166
    2  -1.6406272  -2.3942806   2.2456765
    3   2.5548468  -2.4910241   2.3015832
 Gradient of SCF Energy
            1           2           3           4           5           6
    1   0.0000161   0.0001355  -0.0001861   0.0000297   0.0000034  -0.0000120
    2   0.0000318   0.0000439  -0.0000386  -0.0000506   0.0000089  -0.0000257
    3  -0.0000445   0.0000292   0.0000871   0.0000145  -0.0000411  -0.0000219
            7           8           9
    1  -0.0000102   0.0000576  -0.0000339
    2   0.0000598   0.0000403  -0.0000698
    3   0.0000389   0.0000252  -0.0000873
 Max gradient component =       1.861E-04
 RMS gradient           =       6.062E-05
 Gradient time:  CPU 0.51 s  wall 0.51 s
 Geometry Optimization Parameters
   NAtoms,    NIC,     NZ,  NCons,   NDum,   NFix, NCnnct, MaxDiis
        9      51       0       0       0       0       0       0

 Cartesian Hessian Update
 Hessian Updated using BFGS Update


** GEOMETRY OPTIMIZATION IN DELOCALIZED INTERNAL COORDINATES **
   Searching for a Minimum

   Optimization Cycle:   8

                       Coordinates (Angstroms)
     ATOM                X               Y               Z
      1  C         1.2072346980   -0.2398707537   -0.0021668148
      2  C        -0.0663473859    0.5988929654   -0.0636203106
      3  O        -1.2805214598   -0.2118288378    0.0997144759
      4  H         2.0957927145    0.4025435064   -0.0514622485
      5  H         1.2620807402   -0.9472302452   -0.8403033853
      6  H         1.2445070766   -0.8111123762    0.9313944473
      7  H        -0.1216031557    1.1656342998   -1.0037227598
      8  H        -0.1135011483    1.3079164197    0.7655846356
      9  H        -1.3647233151   -0.8670057191   -0.6225725650
   Point Group: c1    Number of degrees of freedom:    21


   Energy is   -155.002580161

 GETINT wrote B to file, NVib is           21
 Hessian Updated using BFGS Update

 21 Hessian modes will be used to form the next step
  Hessian Eigenvalues:
     0.003128    0.005557    0.053396    0.056713    0.058920    0.059475
     0.111674    0.139250    0.151700    0.161027    0.162329    0.173053
     0.217972    0.293536    0.320261    0.325252    0.325392    0.326027
     0.330942    0.383426    0.490752

 Minimum Search - Taking Simple RFO Step
 Searching for Lamda that Minimizes Along All modes
 Value Taken    Lamda =   0.00000000
 Step Taken.  Stepsize is  0.004962

                             Maximum     Tolerance    Cnvgd?
         Gradient           0.000164      0.000300     YES
         Displacement       0.003866      0.001200      NO
         Energy change     -0.000004      0.000001      NO


 New Cartesian Coordinates Obtained by Inverse Iteration

 Displacement from previous Coordinates is:  0.004842
 ----------------------------------------------------------------
             Standard Nuclear Orientation (Angstroms)
    I     Atom           X                Y                Z
 ----------------------------------------------------------------
    1      C       1.2072727051    -0.2399342065    -0.0019922163
    2      C      -0.0664602283     0.5986322369    -0.0634432507
    3      O      -1.2802144053    -0.2119420871     0.0994645371
    4      H       2.0954864996     0.4028639232    -0.0525311302
    5      H       1.2615898949    -0.9478762924    -0.8396483873
    6      H       1.2454036399    -0.8105165491     0.9319236125
    7      H      -0.1212857190     1.1655367478    -1.0034787843
    8      H      -0.1138760329     1.3073220627     0.7659862750
    9      H      -1.3649975894    -0.8661465761    -0.6234351808
 ----------------------------------------------------------------
 Molecular Point Group                 C1    NOp =  1
 Largest Abelian Subgroup              C1    NOp =  1
 Nuclear Repulsion Energy =    80.4930102140 hartrees
 There are       13 alpha and       13 beta electrons
 Applying Cartesian multipole field
    Component          Value
    ---------          -----
     (2,0,0)        1.00000E-11
     (0,2,0)        2.00000E-11
     (0,0,2)       -3.00000E-11
 Nucleus-field energy     =     0.0000000013 hartrees
 Requested basis set is 6-31++G
 There are 30 shells and 57 basis functions
 A cutoff of  1.0D-11 yielded    464 shell pairs
 There are      1706 function pairs
         cpu   0.00 wall   0.00
 Smallest overlap matrix eigenvalue = 2.68E-04
 Guess MOs from SCF MO coefficient file
Reading MOs from coefficient file
GuessMan calls MO2Den with 13 electrons (IDen = 0)
Reading MOs from coefficient file
GuessMan calls MO2Den with 13 electrons (IDen = 1)
 A restricted hybrid HF-DFT SCF calculation will be
 performed using Pulay DIIS extrapolation
 Exchange:     0.2000 Hartree-Fock + 0.0800 Slater + 0.7200 Becke88
 Correlation:  0.8100 LYP + 0.1900 VWN1RPA
 Using SG-1 standard quadrature grid
 SCF converges when DIIS error is below 1.0E-08
Geometry optimization detected.  Setting ReadMinima to 0
Setting SaveMinima to 0
 ---------------------------------------
  Cycle       Energy         DIIS Error
 ---------------------------------------
    1    -155.0027953097      4.32E-05
    2    -155.0025803913      4.58E-06
    3    -155.0025804018      2.71E-06
    4    -155.0025804041      1.30E-06
    5    -155.0025804047      3.35E-07
    6    -155.0025804047      1.19E-07
    7    -155.0025804048      9.85E-09 Convergence criterion met
 ---------------------------------------
 SCF time:  CPU 1.28 s  wall 1.30 s
 SCF   energy in the final basis set = -155.0025804048
 Total energy in the final basis set = -155.0025804048
 Analysis of SCF Wavefunction
 
 --------------------------------------------------------------
 
                    Orbital Energies (a.u.)
 --------------------------------------------------------------
 
 Alpha MOs
 -- Occupied --
-19.152 -10.240 -10.185  -1.021  -0.761  -0.636  -0.507  -0.462
 -0.436  -0.391  -0.376  -0.327  -0.279
 -- Virtual --
 -0.015   0.007   0.016   0.025   0.045   0.055   0.073   0.078
  0.102   0.114   0.127   0.134   0.144   0.147   0.171   0.193
  0.208   0.221   0.227   0.257   0.263   0.284   0.301   0.340
  0.363   0.387   0.660   0.689   0.732   0.754   0.764   0.769
  0.986   1.021   1.032   1.071   1.091   1.142   1.184   1.274
  1.316   1.409   1.494   1.871
 --------------------------------------------------------------
 
          Ground-State Mulliken Net Atomic Charges

     Atom                 Charge (a.u.)
  ----------------------------------------
      1 C                    -0.638076
      2 C                    -0.334991
      3 O                    -0.514774
      4 H                     0.188264
      5 H                     0.207726
      6 H                     0.241805
      7 H                     0.206706
      8 H                     0.243471
      9 H                     0.399870
  ----------------------------------------
  Sum of atomic charges =     0.000000

 -----------------------------------------------------------------
                    Cartesian Multipole Moments
 -----------------------------------------------------------------
    Charge (ESU x 10^10)
                 0.0000
    Dipole Moment (Debye)
         X       1.7131      Y      -0.1046      Z      -1.5321
       Tot       2.3006
    Quadrupole Moments (Debye-Ang)
        XX     -23.4370     XY       1.2479     YY     -18.9106
        XZ       2.5007     YZ       1.5599     ZZ     -19.6750
    Octopole Moments (Debye-Ang^2)
       XXX       1.8718    XXY      -2.6050    XYY      -2.8396
       YYY      -2.9285    XXZ      -3.0996    XYZ      -2.0270
       YYZ      -0.5160    XZZ      -1.7062    YZZ      -1.1157
       ZZZ       0.3674
    Hexadecapole Moments (Debye-Ang^3)
      XXXX    -177.3069   XXXY       8.8611   XXYY     -35.5411
      XYYY       4.4546   YYYY     -60.0133   XXXZ       5.9224
      XXYZ       2.8499   XYYZ       1.7801   YYYZ       2.5695
      XXZZ     -34.2840   XYZZ       0.5519   YYZZ     -14.4960
      XZZZ       2.4829   YZZZ       1.3811   ZZZZ     -36.5646
 -----------------------------------------------------------------
 Calculating analytic gradient of the SCF energy
         cpu   0.00 wall   0.00
 Gradient of Coulomb and Exchange Energy
            1           2           3           4           5           6
    1  -3.0118256  -1.7554777   7.2541566  -2.5879489  -0.6002764  -0.4399577
    2   0.6778553  -2.0012895   1.0177316  -1.4853911   1.9482158   1.6334511
    3   0.3317896   0.6585120  -3.1302208   0.1030756   2.1344722  -2.4645727
            7           8           9
    1   0.1751133   0.1068468   0.8593697
    2  -1.6405300  -2.3931300   2.2430867
    3   2.5548756  -2.4926899   2.3047585
 Gradient of SCF Energy
            1           2           3           4           5           6
    1   0.0000121  -0.0000099  -0.0000078   0.0000086  -0.0000135  -0.0000036
    2  -0.0000039  -0.0000198   0.0000126  -0.0000225   0.0000151  -0.0000323
    3  -0.0000275   0.0000225   0.0000025   0.0000024  -0.0000289  -0.0000273
            7           8           9
    1   0.0000019   0.0000275  -0.0000153
    2   0.0000362  -0.0000087   0.0000232
    3   0.0000325   0.0000294  -0.0000055
 Max gradient component =       3.624E-05
 RMS gradient           =       1.985E-05
 Gradient time:  CPU 0.48 s  wall 0.48 s
 Geometry Optimization Parameters
   NAtoms,    NIC,     NZ,  NCons,   NDum,   NFix, NCnnct, MaxDiis
        9      51       0       0       0       0       0       0

 Cartesian Hessian Update
 Hessian Updated using BFGS Update


** GEOMETRY OPTIMIZATION IN DELOCALIZED INTERNAL COORDINATES **
   Searching for a Minimum

   Optimization Cycle:   9

                       Coordinates (Angstroms)
     ATOM                X               Y               Z
      1  C         1.2072727051   -0.2399342065   -0.0019922163
      2  C        -0.0664602283    0.5986322369   -0.0634432507
      3  O        -1.2802144053   -0.2119420871    0.0994645371
      4  H         2.0954864996    0.4028639232   -0.0525311302
      5  H         1.2615898949   -0.9478762924   -0.8396483873
      6  H         1.2454036399   -0.8105165491    0.9319236125
      7  H        -0.1212857190    1.1655367478   -1.0034787843
      8  H        -0.1138760329    1.3073220627    0.7659862750
      9  H        -1.3649975894   -0.8661465761   -0.6234351808
   Point Group: c1    Number of degrees of freedom:    21


   Energy is   -155.002580405

 GETINT wrote B to file, NVib is           21
 Hessian Updated using BFGS Update

 21 Hessian modes will be used to form the next step
  Hessian Eigenvalues:
     0.003054    0.004932    0.053757    0.056740    0.058412    0.059075
     0.111959    0.138418    0.152415    0.161022    0.162400    0.171028
     0.221591    0.295460    0.320254    0.325067    0.325513    0.326796
     0.331296    0.379422    0.495412

 Minimum Search - Taking Simple RFO Step
 Searching for Lamda that Minimizes Along All modes
 Value Taken    Lamda =   0.00000000
 Step Taken.  Stepsize is  0.001879

                             Maximum     Tolerance    Cnvgd?
         Gradient           0.000019      0.000300     YES
         Displacement       0.001308      0.001200      NO
         Energy change      0.000000      0.000001     YES


                       Distance Matrix (Angstroms)
             C (  1)   C (  2)   O (  3)   H (  4)   H (  5)   H (  6)
   C (  2)  1.526226
   O (  3)  2.489713  1.468594
   H (  4)  1.097573  2.170820  3.434595
   H (  5)  1.098089  2.181261  2.807900  1.771845
   H (  6)  1.095088  2.167358  2.725807  1.778787  1.776963
   H (  7)  2.177933  1.099115  2.111172  2.529832  2.530948  3.085192
   H (  8)  2.174679  1.091990  2.027994  2.523747  3.091260  2.521987
   H (  9)  2.719358  2.036017  0.978650  3.729781  2.636738  3.039150
             H (  7)   H (  8)
   H (  8)  1.775152
   H (  9)  2.412258  2.867013
 
 Final energy is   -155.002580404812     


 ******************************
 **  OPTIMIZATION CONVERGED  **
 ******************************

Z-matrix Print:
$molecule
0 1
C 
H  1 1.091990
H  1 1.099115 2 108.223253
O  1 1.468594 2 103.772051 3 116.579101 0
H  4 0.978650 1 111.015403 2 -177.468715 0
C  1 1.526226 2 111.237510 3 -122.273323 0
H  6 1.095088 1 110.467446 2 -60.140056 0
H  6 1.097573 1 110.593671 2 59.915129 0
H  6 1.098089 1 111.394801 2 179.531324 0
$end

 Analysis of SCF Wavefunction
 
 --------------------------------------------------------------
 
                    Orbital Energies (a.u.)
 --------------------------------------------------------------
 
 Alpha MOs
 -- Occupied --
-19.152 -10.240 -10.185  -1.021  -0.761  -0.636  -0.507  -0.462
 -0.436  -0.391  -0.376  -0.327  -0.279
 -- Virtual --
 -0.015   0.007   0.016   0.025   0.045   0.055   0.073   0.078
  0.102   0.114   0.127   0.134   0.144   0.147   0.171   0.193
  0.208   0.221   0.227   0.257   0.263   0.284   0.301   0.340
  0.363   0.387   0.660   0.689   0.732   0.754   0.764   0.769
  0.986   1.021   1.032   1.071   1.091   1.142   1.184   1.274
  1.316   1.409   1.494   1.871
 --------------------------------------------------------------
 
          Ground-State Mulliken Net Atomic Charges

     Atom                 Charge (a.u.)
  ----------------------------------------
      1 C                    -0.638076
      2 C                    -0.334991
      3 O                    -0.514774
      4 H                     0.188264
      5 H                     0.207726
      6 H                     0.241805
      7 H                     0.206706
      8 H                     0.243471
      9 H                     0.399870
  ----------------------------------------
  Sum of atomic charges =     0.000000

 -----------------------------------------------------------------
                    Cartesian Multipole Moments
 -----------------------------------------------------------------
    Charge (ESU x 10^10)
                 0.0000
    Dipole Moment (Debye)
         X       1.7131      Y      -0.1046      Z      -1.5321
       Tot       2.3006
    Quadrupole Moments (Debye-Ang)
        XX     -23.4370     XY       1.2479     YY     -18.9106
        XZ       2.5007     YZ       1.5599     ZZ     -19.6750
    Octopole Moments (Debye-Ang^2)
       XXX       1.8718    XXY      -2.6050    XYY      -2.8396
       YYY      -2.9285    XXZ      -3.0996    XYZ      -2.0270
       YYZ      -0.5160    XZZ      -1.7062    YZZ      -1.1157
       ZZZ       0.3674
    Hexadecapole Moments (Debye-Ang^3)
      XXXX    -177.3069   XXXY       8.8611   XXYY     -35.5411
      XYYY       4.4546   YYYY     -60.0133   XXXZ       5.9224
      XXYZ       2.8499   XYYZ       1.7801   YYYZ       2.5695
      XXZZ     -34.2840   XYZZ       0.5519   YYZZ     -14.4960
      XZZZ       2.4829   YZZZ       1.3811   ZZZZ     -36.5646
 -----------------------------------------------------------------
Archival summary:
1\1\Brandons-MBP.dhcp.lbnl.us\OPT\ProcedureUnspecified\BasisUnspecified\12321\FriJul2411:09:052015FriJul2411:09:052015\0\\#,OPT,ProcedureUnspecified,BasisUnspecified,\\0,1\C\H,1,1.09199\H,1,1.09911,2,108.223\O,1,1.46859,2,103.772,3,116.579,0\H,4,0.97865,1,111.015,2,-177.469,0\C,1,1.52623,2,111.238,3,-122.273,0\H,6,1.09509,1,110.467,2,-60.1401,0\H,6,1.09757,1,110.594,2,59.9151,0\H,6,1.09809,1,111.395,2,179.531,0\\\@

 Total job time:  20.80s(wall), 20.31s(cpu) 
 Fri Jul 24 11:09:05 2015

        *************************************************************
        *                                                           *
        *  Thank you very much for using Q-Chem.  Have a nice day.  *
        *                                                           *
        *************************************************************


