LAMMPS data file. CGCMM style. atom_style full generated by VMD/TopoTools v1.5 on Fri Jul 24 12:06:35 PDT 2015
 7 atoms
 6 bonds
 0 angles
 0 dihedrals
 0 impropers
 3 atom types
 1 bond types
 0 angle types
 0 dihedral types
 0 improper types
 -0.500000 0.500000  xlo xhi
 -0.500000 0.500000  ylo yhi
 -0.500000 0.500000  zlo zhi

# Pair Coeffs
#
# 1  C
# 2  H
# 3  O

# Bond Coeffs
#
# 1  

 Masses

 1 12.010700 # C
 2 1.007940 # H
 3 15.999400 # O

 Atoms

1 1 1 0.000000 1.207270 -0.239930 -0.001990 # C 
2 1 1 0.000000 -0.066460 0.598630 -0.063440 # C 
3 1 3 0.000000 -1.280210 -0.211940 0.099460 # O 
4 1 2 0.000000 2.095490 0.402860 -0.052530 # H 
5 1 2 0.000000 1.245400 -0.810520 0.931920 # H 
6 1 2 0.000000 -0.121290 1.165540 -1.003480 # H 
7 1 2 0.000000 -0.113880 1.307320 0.765990 # H 

 Bonds

1 1 1 4
2 1 1 5
3 1 1 2
4 1 2 3
5 1 2 6
6 1 2 7

